 vasp.5.4.1 24Jun15 (build Aug 03 2015 13:31:17) complex                        
  
 executed on      LinuxIFC_2015xe date 2021.08.15  07:08:49
 running on   48 total cores
 distrk:  each k-point on   48 cores,    1 groups
 distr:  one band on NCORES_PER_BAND=   1 cores,   48 groups


--------------------------------------------------------------------------------------------------------


 INCAR:
 POTCAR:    PAW_PBE Cu 22Jun2005                  
 POTCAR:   PAW_PBE O 08Apr2002                    
 POTCAR:   PAW_PBE C 08Apr2002                    
 POTCAR:   PAW_PBE H 15Jun2001                    
 POTCAR:   PAW_PBE N 08Apr2002                    

 ----------------------------------------------------------------------------- 
|                                                                             |
|           W    W    AA    RRRRR   N    N  II  N    N   GGGG   !!!           |
|           W    W   A  A   R    R  NN   N  II  NN   N  G    G  !!!           |
|           W    W  A    A  R    R  N N  N  II  N N  N  G       !!!           |
|           W WW W  AAAAAA  RRRRR   N  N N  II  N  N N  G  GGG   !            |
|           WW  WW  A    A  R   R   N   NN  II  N   NN  G    G                |
|           W    W  A    A  R    R  N    N  II  N    N   GGGG   !!!           |
|                                                                             |
|      For optimal performance we recommend to set                            |
|        NCORE= 4 - approx SQRT( number of cores)                             |
|      NCORE specifies how many cores store one orbital (NPAR=cpu/NCORE).     |
|      This setting can  greatly improve the performance of VASP for DFT.     |
|      The default, NPAR=number of cores might be grossly inefficient         |
|      on modern multi-core architectures or massively parallel machines.     |
|      Do your own testing !!!!                                               |
|      Unfortunately you need to use the default for GW and RPA calculations. |
|      (for HF NCORE is supported but not extensively tested yet)             |
|                                                                             |
 ----------------------------------------------------------------------------- 

 POTCAR:    PAW_PBE Cu 22Jun2005                  
   VRHFIN =Cu: d10 p1                                                           
   LEXCH  = PE                                                                  
   EATOM  =  1390.9808 eV,  102.2342 Ry                                         
                                                                                
   TITEL  = PAW_PBE Cu 22Jun2005                                                
   LULTRA =        F    use ultrasoft PP ?                                      
   IUNSCR =        1    unscreen: 0-lin 1-nonlin 2-no                           
   RPACOR =    2.000    partial core radius                                     
   POMASS =   63.546; ZVAL   =   11.000    mass and valenz                      
   RCORE  =    2.300    outmost cutoff radius                                   
   RWIGS  =    2.200; RWIGS  =    1.164    wigner-seitz radius (au A)           
   ENMAX  =  295.446; ENMIN  =  221.585 eV                                      
   ICORE  =        3    local potential                                         
   LCOR   =        T    correct aug charges                                     
   LPAW   =        T    paw PP                                                  
   EAUG   =  586.980                                                            
   DEXC   =    0.000                                                            
   RMAX   =    2.344    core radius for proj-oper                               
   RAUG   =    1.300    factor for augmentation sphere                          
   RDEP   =    2.302    radius for radial grids                                 
   RDEPT  =    1.771    core radius for aug-charge                              
                                                                                
   Atomic configuration                                                         
    9 entries                                                                   
     n  l   j            E        occ.                                          
     1  0  0.50     -8850.2468   2.0000                                         
     2  0  0.50     -1062.3498   2.0000                                         
     2  1  1.50      -916.8226   6.0000                                         
     3  0  0.50      -114.6929   2.0000                                         
     3  1  1.50       -72.1325   6.0000                                         
     3  2  2.50        -5.0394  10.0000                                         
     4  0  0.50        -4.6097   1.0000                                         
     4  1  0.50        -4.0817   0.0000                                         
     4  3  2.50        -1.3606   0.0000                                         
   Description                                                                  
     l       E           TYP  RCUT    TYP  RCUT                                 
     2     -5.0393973     23  2.200                                             
     2     10.8846608     23  2.200                                             
     0     -4.6097109     23  2.200                                             
     0      8.2520465     23  2.200                                             
     1     -2.7211652     23  2.200                                             
     1     21.7055443     23  2.200                                             
     3      2.7211652     23  2.300                                             
  local pseudopotential read in
  partial core-charges read in
  partial kinetic energy density read in
  atomic valenz-charges read in
  non local Contribution for L=           2  read in
    real space projection operators read in
  non local Contribution for L=           2  read in
    real space projection operators read in
  non local Contribution for L=           0  read in
    real space projection operators read in
  non local Contribution for L=           0  read in
    real space projection operators read in
  non local Contribution for L=           1  read in
    real space projection operators read in
  non local Contribution for L=           1  read in
    real space projection operators read in
    PAW grid and wavefunctions read in
 
   number of l-projection  operators is LMAX  =           6
   number of lm-projection operators is LMMAX =          18
 
 POTCAR:   PAW_PBE O 08Apr2002                    
   VRHFIN =O: s2p4                                                              
   LEXCH  = PE                                                                  
   EATOM  =   432.3788 eV,   31.7789 Ry                                         
                                                                                
   TITEL  = PAW_PBE O 08Apr2002                                                 
   LULTRA =        F    use ultrasoft PP ?                                      
   IUNSCR =        0    unscreen: 0-lin 1-nonlin 2-no                           
   RPACOR =     .000    partial core radius                                     
   POMASS =   16.000; ZVAL   =    6.000    mass and valenz                      
   RCORE  =    1.520    outmost cutoff radius                                   
   RWIGS  =    1.550; RWIGS  =     .820    wigner-seitz radius (au A)           
   ENMAX  =  400.000; ENMIN  =  300.000 eV                                      
   ICORE  =        2    local potential                                         
   LCOR   =        T    correct aug charges                                     
   LPAW   =        T    paw PP                                                  
   EAUG   =  605.392                                                            
   DEXC   =     .000                                                            
   RMAX   =    2.264    core radius for proj-oper                               
   RAUG   =    1.300    factor for augmentation sphere                          
   RDEP   =    1.550    radius for radial grids                                 
   QCUT   =   -5.520; QGAM   =   11.041    optimization parameters              
                                                                                
   Description                                                                  
     l     E      TYP  RCUT    TYP  RCUT                                        
     0   .000     23  1.200                                                     
     0  -.700     23  1.200                                                     
     1   .000     23  1.520                                                     
     1   .600     23  1.520                                                     
     2   .000      7  1.500                                                     
  local pseudopotential read in
  atomic valenz-charges read in
  non local Contribution for L=           0  read in
    real space projection operators read in
  non local Contribution for L=           0  read in
    real space projection operators read in
  non local Contribution for L=           1  read in
    real space projection operators read in
  non local Contribution for L=           1  read in
    real space projection operators read in
    PAW grid and wavefunctions read in
 
   number of l-projection  operators is LMAX  =           4
   number of lm-projection operators is LMMAX =           8
 
 POTCAR:   PAW_PBE C 08Apr2002                    
   VRHFIN =C: s2p2                                                              
   LEXCH  = PE                                                                  
   EATOM  =   147.1560 eV,   10.8157 Ry                                         
                                                                                
   TITEL  = PAW_PBE C 08Apr2002                                                 
   LULTRA =        F    use ultrasoft PP ?                                      
   IUNSCR =        0    unscreen: 0-lin 1-nonlin 2-no                           
   RPACOR =     .000    partial core radius                                     
   POMASS =   12.011; ZVAL   =    4.000    mass and valenz                      
   RCORE  =    1.500    outmost cutoff radius                                   
   RWIGS  =    1.630; RWIGS  =     .863    wigner-seitz radius (au A)           
   ENMAX  =  400.000; ENMIN  =  300.000 eV                                      
   ICORE  =        2    local potential                                         
   LCOR   =        T    correct aug charges                                     
   LPAW   =        T    paw PP                                                  
   EAUG   =  644.873                                                            
   DEXC   =     .000                                                            
   RMAX   =    2.266    core radius for proj-oper                               
   RAUG   =    1.300    factor for augmentation sphere                          
   RDEP   =    1.501    radius for radial grids                                 
   RDEPT  =    1.300    core radius for aug-charge                              
   QCUT   =   -5.516; QGAM   =   11.032    optimization parameters              
                                                                                
   Description                                                                  
     l     E      TYP  RCUT    TYP  RCUT                                        
     0   .000     23  1.200                                                     
     0   .000     23  1.200                                                     
     1   .000     23  1.500                                                     
     1  2.500     23  1.500                                                     
     2   .000      7  1.500                                                     
  local pseudopotential read in
  atomic valenz-charges read in
  non local Contribution for L=           0  read in
    real space projection operators read in
  non local Contribution for L=           0  read in
    real space projection operators read in
  non local Contribution for L=           1  read in
    real space projection operators read in
  non local Contribution for L=           1  read in
    real space projection operators read in
    PAW grid and wavefunctions read in
 
   number of l-projection  operators is LMAX  =           4
   number of lm-projection operators is LMMAX =           8
 
 POTCAR:   PAW_PBE H 15Jun2001                    
   VRHFIN =H: ultrasoft test                                                    
   LEXCH  = PE                                                                  
   EATOM  =    12.4884 eV,     .9179 Ry                                         
                                                                                
   TITEL  = PAW_PBE H 15Jun2001                                                 
   LULTRA =        F    use ultrasoft PP ?                                      
   IUNSCR =        0    unscreen: 0-lin 1-nonlin 2-no                           
   RPACOR =     .000    partial core radius                                     
   POMASS =    1.000; ZVAL   =    1.000    mass and valenz                      
   RCORE  =    1.100    outmost cutoff radius                                   
   RWIGS  =     .700; RWIGS  =     .370    wigner-seitz radius (au A)           
   ENMAX  =  250.000; ENMIN  =  200.000 eV                                      
   RCLOC  =     .701    cutoff for local pot                                    
   LCOR   =        T    correct aug charges                                     
   LPAW   =        T    paw PP                                                  
   EAUG   =  400.000                                                            
   RMAX   =    2.174    core radius for proj-oper                               
   RAUG   =    1.200    factor for augmentation sphere                          
   RDEP   =    1.112    radius for radial grids                                 
   QCUT   =   -5.749; QGAM   =   11.498    optimization parameters              
                                                                                
   Description                                                                  
     l     E      TYP  RCUT    TYP  RCUT                                        
     0   .000     23  1.100                                                     
     0   .500     23  1.100                                                     
     1  -.300     23  1.100                                                     
  local pseudopotential read in
  atomic valenz-charges read in
  non local Contribution for L=           0  read in
    real space projection operators read in
  non local Contribution for L=           0  read in
    real space projection operators read in
  non local Contribution for L=           1  read in
    real space projection operators read in
    PAW grid and wavefunctions read in
 
   number of l-projection  operators is LMAX  =           3
   number of lm-projection operators is LMMAX =           5
 
 POTCAR:   PAW_PBE N 08Apr2002                    
   VRHFIN =N: s2p3                                                              
   LEXCH  = PE                                                                  
   EATOM  =   264.5486 eV,   19.4438 Ry                                         
                                                                                
   TITEL  = PAW_PBE N 08Apr2002                                                 
   LULTRA =        F    use ultrasoft PP ?                                      
   IUNSCR =        0    unscreen: 0-lin 1-nonlin 2-no                           
   RPACOR =     .000    partial core radius                                     
   POMASS =   14.001; ZVAL   =    5.000    mass and valenz                      
   RCORE  =    1.500    outmost cutoff radius                                   
   RWIGS  =    1.400; RWIGS  =     .741    wigner-seitz radius (au A)           
   ENMAX  =  400.000; ENMIN  =  300.000 eV                                      
   ICORE  =        2    local potential                                         
   LCOR   =        T    correct aug charges                                     
   LPAW   =        T    paw PP                                                  
   EAUG   =  627.112                                                            
   DEXC   =     .000                                                            
   RMAX   =    2.247    core radius for proj-oper                               
   RAUG   =    1.300    factor for augmentation sphere                          
   RDEP   =    1.514    radius for radial grids                                 
   QCUT   =   -5.562; QGAM   =   11.124    optimization parameters              
                                                                                
   Description                                                                  
     l     E      TYP  RCUT    TYP  RCUT                                        
     0   .000     23  1.200                                                     
     0   .000     23  1.200                                                     
     1   .000     23  1.500                                                     
     1   .700     23  1.500                                                     
     2   .000      7  1.500                                                     
  local pseudopotential read in
  atomic valenz-charges read in
  non local Contribution for L=           0  read in
    real space projection operators read in
  non local Contribution for L=           0  read in
    real space projection operators read in
  non local Contribution for L=           1  read in
    real space projection operators read in
  non local Contribution for L=           1  read in
    real space projection operators read in
    PAW grid and wavefunctions read in
 
   number of l-projection  operators is LMAX  =           4
   number of lm-projection operators is LMMAX =           8
 

 ----------------------------------------------------------------------------- 
|                                                                             |
|  ADVICE TO THIS USER RUNNING 'VASP/VAMP'   (HEAR YOUR MASTER'S VOICE ...):  |
|                                                                             |
|      You have a (more or less) 'large supercell' and for larger cells       |
|      it might be more efficient to use real space projection opertators     |
|      So try LREAL= Auto  in the INCAR   file.                               |
|      Mind: At the moment your POTCAR file does not contain real space       |
|       projectors, and has to be modified,  BUT if you                       |
|      want to do an extremely  accurate calculation you might also keep the  |
|      reciprocal projection scheme          (i.e. LREAL=.FALSE.)             |
|                                                                             |
 ----------------------------------------------------------------------------- 

  PAW_PBE Cu 22Jun2005                  :
 energy of atom  1       EATOM=-1390.9808
 kinetic energy error for atom=    0.0015 (will be added to EATOM!!)
 PAW_PBE O 08Apr2002                    :
 energy of atom  2       EATOM= -432.3788
 kinetic energy error for atom=    0.0091 (will be added to EATOM!!)
 PAW_PBE C 08Apr2002                    :
 energy of atom  3       EATOM= -147.1560
 kinetic energy error for atom=    0.0032 (will be added to EATOM!!)
 PAW_PBE H 15Jun2001                    :
 energy of atom  4       EATOM=  -12.4884
 kinetic energy error for atom=    0.0002 (will be added to EATOM!!)
 PAW_PBE N 08Apr2002                    :
 energy of atom  5       EATOM= -264.5486
 kinetic energy error for atom=    0.0061 (will be added to EATOM!!)
 
 
 POSCAR: C4 H9 Cu N3 O6                          
  positions in direct lattice
  velocities in cartesian coordinates
 exchange correlation table for  LEXCH =        8
   RHO(1)=    0.500       N(1)  =     2000
   RHO(2)=  100.500       N(2)  =     4000
 


--------------------------------------------------------------------------------------------------------


 ion  position               nearest neighbor table
   1  0.984  0.002  0.498-   5 1.97  21 1.99  13 2.02  18 2.03
   2  0.016  0.998  0.998-   6 1.97  22 1.99  14 2.02  17 2.03
   3  0.484  0.498  0.498-   7 1.97  23 1.99  15 2.02  20 2.03
   4  0.516  0.502  0.998-   8 1.97  24 1.99  16 2.02  19 2.03
   5  0.858  0.846  0.576-  29 1.28   1 1.97
   6  0.142  0.154  0.076-  30 1.28   2 1.97
   7  0.358  0.654  0.576-  31 1.28   3 1.97
   8  0.642  0.346  0.076-  32 1.28   4 1.97
   9  0.705  0.648  0.561-  29 1.25
  10  0.295  0.352  0.061-  30 1.25
  11  0.205  0.852  0.561-  31 1.25
  12  0.795  0.148  0.061-  32 1.25
  13  0.987  0.120  0.650-  33 1.27   1 2.02
  14  0.013  0.880  0.150-  34 1.27   2 2.02
  15  0.487  0.380  0.650-  35 1.27   3 2.02
  16  0.513  0.620  0.150-  36 1.27   4 2.02
  17  0.019  0.118  0.846-  33 1.27   2 2.03
  18  0.981  0.882  0.346-  34 1.27   1 2.03
  19  0.519  0.382  0.846-  35 1.27   4 2.03
  20  0.481  0.618  0.346-  36 1.27   3 2.03
  21  0.158  0.121  0.430-  37 1.29   1 1.99
  22  0.842  0.879  0.930-  38 1.29   2 1.99
  23  0.658  0.379  0.430-  39 1.29   3 1.99
  24  0.342  0.621  0.930-  40 1.29   4 1.99
  25  0.309  0.322  0.415-  37 1.26
  26  0.691  0.678  0.915-  38 1.26
  27  0.809  0.178  0.415-  39 1.26
  28  0.191  0.822  0.915-  40 1.26
  29  0.740  0.777  0.531-  45 1.11   9 1.25   5 1.28
  30  0.260  0.223  0.031-  46 1.11  10 1.25   6 1.28
  31  0.240  0.723  0.531-  47 1.11  11 1.25   7 1.28
  32  0.760  0.277  0.031-  48 1.11  12 1.25   8 1.28
  33  0.014  0.052  0.747-  49 1.10  17 1.27  13 1.27
  34  0.986  0.948  0.247-  50 1.10  18 1.27  14 1.27
  35  0.514  0.448  0.747-  51 1.10  19 1.27  15 1.27
  36  0.486  0.552  0.247-  52 1.10  20 1.27  16 1.27
  37  0.190  0.256  0.455-  53 1.11  25 1.26  21 1.29
  38  0.810  0.744  0.955-  54 1.11  26 1.26  22 1.29
  39  0.690  0.244  0.455-  55 1.11  27 1.26  23 1.29
  40  0.310  0.756  0.955-  56 1.11  28 1.26  24 1.29
  41  0.007  0.505  0.748-  81 1.33  85 1.34  89 1.34
  42  0.993  0.495  0.248-  82 1.33  86 1.34  90 1.34
  43  0.507  0.995  0.748-  83 1.33  87 1.34  91 1.34
  44  0.493  0.005  0.248-  84 1.33  88 1.34  92 1.34
  45  0.669  0.835  0.464-  29 1.11
  46  0.331  0.165  0.964-  30 1.11
  47  0.169  0.665  0.464-  31 1.11
  48  0.831  0.335  0.964-  32 1.11
  49  0.036  0.933  0.744-  33 1.10
  50  0.964  0.067  0.244-  34 1.10
  51  0.536  0.567  0.744-  35 1.10
  52  0.464  0.433  0.244-  36 1.10
  53  0.108  0.316  0.514-  37 1.11
  54  0.892  0.684  0.014-  38 1.11
  55  0.608  0.184  0.514-  39 1.11
  56  0.392  0.816  0.014-  40 1.11
  57  0.088  0.707  0.805-  81 1.03
  58  0.912  0.293  0.305-  82 1.03
  59  0.588  0.793  0.805-  83 1.03
  60  0.412  0.207  0.305-  84 1.03
  61  0.955  0.712  0.684-  81 1.03
  62  0.045  0.288  0.184-  82 1.03
  63  0.455  0.788  0.684-  83 1.03
  64  0.545  0.212  0.184-  84 1.03
  65  0.186  0.482  0.868-  85 1.02
  66  0.814  0.518  0.368-  86 1.02
  67  0.686  0.018  0.868-  87 1.02
  68  0.314  0.982  0.368-  88 1.02
  69  0.080  0.318  0.833-  85 1.02
  70  0.920  0.682  0.333-  86 1.02
  71  0.580  0.182  0.833-  87 1.02
  72  0.420  0.818  0.333-  88 1.02
  73  0.829  0.499  0.627-  89 1.03
  74  0.171  0.501  0.127-  90 1.03
  75  0.329  0.001  0.627-  91 1.03
  76  0.671  0.999  0.127-  92 1.03
  77  0.910  0.324  0.668-  89 1.02
  78  0.090  0.676  0.168-  90 1.02
  79  0.410  0.176  0.668-  91 1.02
  80  0.590  0.824  0.168-  92 1.02
  81  0.019  0.652  0.744-  61 1.03  57 1.03  41 1.33
  82  0.981  0.348  0.244-  62 1.03  58 1.03  42 1.33
  83  0.519  0.848  0.744-  63 1.03  59 1.03  43 1.33
  84  0.481  0.152  0.244-  64 1.03  60 1.03  44 1.33
  85  0.099  0.428  0.822-  69 1.02  65 1.02  41 1.34
  86  0.901  0.572  0.322-  70 1.02  66 1.02  42 1.34
  87  0.599  0.072  0.822-  71 1.02  67 1.02  43 1.34
  88  0.401  0.928  0.322-  72 1.02  68 1.02  44 1.34
  89  0.904  0.436  0.678-  77 1.02  73 1.03  41 1.34
  90  0.096  0.564  0.178-  78 1.02  74 1.03  42 1.34
  91  0.404  0.064  0.678-  79 1.02  75 1.03  43 1.34
  92  0.596  0.936  0.178-  80 1.02  76 1.03  44 1.34
 
  LATTYP: Found a simple orthorhombic cell.
 ALAT       =     8.4977917304
 B/A-ratio  =     1.0675315931
 C/A-ratio  =     1.3257833227
  
  Lattice vectors:
  
 A1 = (   8.4977917304,   0.0000000000,   0.0000000000)
 A2 = (   0.0000000000,   9.0716611441,   0.0000000000)
 A3 = (   0.0000000000,   0.0000000000,  11.2662305557)


Analysis of symmetry for initial positions (statically):
=====================================================================
 Subroutine PRICEL returns:
 Original cell was already a primitive cell.
 

 Routine SETGRP: Setting up the symmetry group for a 
 simple orthorhombic supercell.


 Subroutine GETGRP returns: Found  4 space group operations
 (whereof  1 operations were pure point group operations)
 out of a pool of  8 trial point group operations.


The static configuration has the point symmetry C_1 .
 The point group associated with its full space group is C_2v.


Analysis of symmetry for dynamics (positions and initial velocities):
=====================================================================
 Subroutine PRICEL returns:
 Original cell was already a primitive cell.
 

 Routine SETGRP: Setting up the symmetry group for a 
 simple orthorhombic supercell.


 Subroutine GETGRP returns: Found  4 space group operations
 (whereof  1 operations were pure point group operations)
 out of a pool of  8 trial point group operations.


The dynamic configuration has the point symmetry C_1 .
 The point group associated with its full space group is C_2v.


Analysis of magnetic symmetry:
=====================================================================
 Subroutine PRICEL returns:
 Original cell was already a primitive cell.
 

 Subroutine MAGSYM returns: Found  4 space group operations
 (whereof  1 operations were pure point group operations)
 out of a pool of  4 trial space group operations
 (whereof  1 operations were pure point group operations)
 and found also     1 'primitive' translations


The magnetic configuration has the point symmetry C_1 .
 The point group associated with its full space group is C_2v.
 
 
 KPOINTS: Automatic mesh                          

Automatic generation of k-mesh.
Space group operators:
 irot       det(A)        alpha          n_x          n_y          n_z        tau_x        tau_y        tau_z
    1     1.000000     0.000000     1.000000     0.000000     0.000000     0.000000     0.000000     0.000000
    2     1.000000   180.000000     0.000000     0.000000     1.000000     0.000000     0.000000     0.500000
    3    -1.000000   180.000000     0.000000     1.000000     0.000000     0.500000     0.500000     0.000000
    4    -1.000000   180.000000     1.000000     0.000000     0.000000     0.500000     0.500000     0.500000
 
 Subroutine IBZKPT returns following result:
 ===========================================
 
 Found      8 irreducible k-points:
 
 Following reciprocal coordinates:
            Coordinates               Weight
  0.125000  0.125000  0.000000      4.000000
  0.375000  0.125000  0.000000      4.000000
  0.125000  0.375000  0.000000      4.000000
  0.375000  0.375000  0.000000      4.000000
  0.125000  0.125000  0.333333      8.000000
  0.375000  0.125000  0.333333      8.000000
  0.125000  0.375000  0.333333      8.000000
  0.375000  0.375000  0.333333      8.000000
 
 Following cartesian coordinates:
            Coordinates               Weight
  0.014710  0.013779  0.000000      4.000000
  0.044129  0.013779  0.000000      4.000000
  0.014710  0.041338  0.000000      4.000000
  0.044129  0.041338  0.000000      4.000000
  0.014710  0.013779  0.029587      8.000000
  0.044129  0.013779  0.029587      8.000000
  0.014710  0.041338  0.029587      8.000000
  0.044129  0.041338  0.029587      8.000000
 
 
 Subroutine IBZKPT_HF returns following result:
 ==============================================
 
 Found     48 k-points in 1st BZ
 the following     48 k-points will be used (e.g. in the exchange kernel)
 Following reciprocal coordinates:   # in IRBZ
  0.125000  0.125000  0.000000    0.02083333   1 t-inv F
  0.375000  0.125000  0.000000    0.02083333   2 t-inv F
  0.125000  0.375000  0.000000    0.02083333   3 t-inv F
  0.375000  0.375000  0.000000    0.02083333   4 t-inv F
  0.125000  0.125000  0.333333    0.02083333   5 t-inv F
  0.375000  0.125000  0.333333    0.02083333   6 t-inv F
  0.125000  0.375000  0.333333    0.02083333   7 t-inv F
  0.375000  0.375000  0.333333    0.02083333   8 t-inv F
 -0.125000 -0.125000  0.000000    0.02083333   1 t-inv F spinflp
  0.125000 -0.125000  0.000000    0.02083333   1 t-inv F
 -0.125000  0.125000  0.000000    0.02083333   1 t-inv F spinflp
 -0.375000 -0.125000  0.000000    0.02083333   2 t-inv F spinflp
  0.375000 -0.125000  0.000000    0.02083333   2 t-inv F
 -0.375000  0.125000  0.000000    0.02083333   2 t-inv F spinflp
 -0.125000 -0.375000  0.000000    0.02083333   3 t-inv F spinflp
  0.125000 -0.375000  0.000000    0.02083333   3 t-inv F
 -0.125000  0.375000  0.000000    0.02083333   3 t-inv F spinflp
 -0.375000 -0.375000  0.000000    0.02083333   4 t-inv F spinflp
  0.375000 -0.375000  0.000000    0.02083333   4 t-inv F
 -0.375000  0.375000  0.000000    0.02083333   4 t-inv F spinflp
 -0.125000 -0.125000  0.333333    0.02083333   5 t-inv F spinflp
  0.125000 -0.125000  0.333333    0.02083333   5 t-inv F
 -0.125000  0.125000  0.333333    0.02083333   5 t-inv F spinflp
 -0.375000 -0.125000  0.333333    0.02083333   6 t-inv F spinflp
  0.375000 -0.125000  0.333333    0.02083333   6 t-inv F
 -0.375000  0.125000  0.333333    0.02083333   6 t-inv F spinflp
 -0.125000 -0.375000  0.333333    0.02083333   7 t-inv F spinflp
  0.125000 -0.375000  0.333333    0.02083333   7 t-inv F
 -0.125000  0.375000  0.333333    0.02083333   7 t-inv F spinflp
 -0.375000 -0.375000  0.333333    0.02083333   8 t-inv F spinflp
  0.375000 -0.375000  0.333333    0.02083333   8 t-inv F
 -0.375000  0.375000  0.333333    0.02083333   8 t-inv F spinflp
 -0.125000 -0.125000 -0.333333    0.02083333   5 t-inv T
  0.125000  0.125000 -0.333333    0.02083333   5 t-inv T spinflp
 -0.125000  0.125000 -0.333333    0.02083333   5 t-inv T
  0.125000 -0.125000 -0.333333    0.02083333   5 t-inv T spinflp
 -0.375000 -0.125000 -0.333333    0.02083333   6 t-inv T
  0.375000  0.125000 -0.333333    0.02083333   6 t-inv T spinflp
 -0.375000  0.125000 -0.333333    0.02083333   6 t-inv T
  0.375000 -0.125000 -0.333333    0.02083333   6 t-inv T spinflp
 -0.125000 -0.375000 -0.333333    0.02083333   7 t-inv T
  0.125000  0.375000 -0.333333    0.02083333   7 t-inv T spinflp
 -0.125000  0.375000 -0.333333    0.02083333   7 t-inv T
  0.125000 -0.375000 -0.333333    0.02083333   7 t-inv T spinflp
 -0.375000 -0.375000 -0.333333    0.02083333   8 t-inv T
  0.375000  0.375000 -0.333333    0.02083333   8 t-inv T spinflp
 -0.375000  0.375000 -0.333333    0.02083333   8 t-inv T
  0.375000 -0.375000 -0.333333    0.02083333   8 t-inv T spinflp


--------------------------------------------------------------------------------------------------------




 Dimension of arrays:
   k-points           NKPTS =      8   k-points in BZ     NKDIM =      8   number of bands    NBANDS=    240
   number of dos      NEDOS =   6000   number of ions     NIONS =     92
   non local maximal  LDIM  =      6   non local SUM 2l+1 LMDIM =     18
   total plane-waves  NPLWV = 627200
   max r-space proj   IRMAX =      1   max aug-charges    IRDMAX=   5242
   dimension x,y,z NGX =    80 NGY =   80 NGZ =   98
   dimension x,y,z NGXF=    96 NGYF=  100 NGZF=  126
   support grid    NGXF=    96 NGYF=  100 NGZF=  126
   ions per type =               4  24  16  36  12
 NGX,Y,Z   is equivalent  to a cutoff of  15.65, 14.66, 14.46 a.u.
 NGXF,Y,Z  is equivalent  to a cutoff of  18.78, 18.33, 18.59 a.u.


 I would recommend the setting:
   dimension x,y,z NGX =    73 NGY =   78 NGZ =   97
 SYSTEM =  Cu-MOF                                  
 POSCAR =  C4 H9 Cu N3 O6                          

 Startparameter for this run:
   NWRITE =      2    write-flag & timer
   PREC   = high      normal or accurate (medium, high low for compatibility)
   ISTART =      0    job   : 0-new  1-cont  2-samecut
   ICHARG =      1    charge: 1-file 2-atom 10-const
   ISPIN  =      2    spin polarized calculation?
   LNONCOLLINEAR =      F non collinear calculations
   LSORBIT =      F    spin-orbit coupling
   INIWAV =      1    electr: 0-lowe 1-rand  2-diag
   LASPH  =      F    aspherical Exc in radial PAW
   METAGGA=      F    non-selfconsistent MetaGGA calc.

 Electronic Relaxation 1
   ENCUT  =  700.0 eV  51.45 Ry    7.17 a.u.  18.33 19.57 24.30*2*pi/ulx,y,z
   ENINI  =  700.0     initial cutoff
   ENAUG  =  644.9 eV  augmentation charge cutoff
   NELM   =   2000;   NELMIN=  2; NELMDL= -3     # of ELM steps 
   EDIFF  = 0.1E-05   stopping-criterion for ELM
   LREAL  =      F    real-space projection
   NLSPLINE    = F    spline interpolate recip. space projectors
   LCOMPAT=      F    compatible to vasp.4.4
   GGA_COMPAT  = T    GGA compatible to vasp.4.4-vasp.4.6
   LMAXPAW     = -100 max onsite density
   LMAXMIX     =    2 max onsite mixed and CHGCAR
   VOSKOWN=      0    Vosko Wilk Nusair interpolation
   ROPT   =    0.00000   0.00000   0.00000   0.00000
   ROPT   =    0.00000
 Ionic relaxation
   EDIFFG = 0.1E-04   stopping-criterion for IOM
   NSW    =      0    number of steps for IOM
   NBLOCK =      1;   KBLOCK =      1    inner block; outer block 
   IBRION =     -1    ionic relax: 0-MD 1-quasi-New 2-CG
   NFREE  =      0    steps in history (QN), initial steepest desc. (CG)
   ISIF   =      2    stress and relaxation
   IWAVPR =     10    prediction:  0-non 1-charg 2-wave 3-comb
   ISYM   =      2    0-nonsym 1-usesym 2-fastsym
   LCORR  =      T    Harris-Foulkes like correction to forces

   POTIM  = 0.5000    time-step for ionic-motion
   TEIN   =    0.0    initial temperature
   TEBEG  =    0.0;   TEEND  =   0.0 temperature during run
   SMASS  =  -3.00    Nose mass-parameter (am)
   estimated Nose-frequenzy (Omega)   =  0.10E-29 period in steps =****** mass=  -0.165E-26a.u.
   SCALEE = 1.0000    scale energy and forces
   NPACO  =    256;   APACO  = 16.0  distance and # of slots for P.C.
   PSTRESS=    0.0 pullay stress

  Mass of Ions in am
   POMASS =  63.55 16.00 12.01  1.00 14.00
  Ionic Valenz
   ZVAL   =  11.00  6.00  4.00  1.00  5.00
  Atomic Wigner-Seitz radii
   RWIGS  =  -1.00 -1.00 -1.00 -1.00 -1.00
  virtual crystal weights 
   VCA    =   1.00  1.00  1.00  1.00  1.00
   NELECT =     348.0000    total number of electrons
   NUPDOWN=      -1.0000    fix difference up-down

 DOS related values:
   EMIN   =  10.00;   EMAX   =-10.00  energy-range for DOS
   EFERMI =   0.00
   ISMEAR =     0;   SIGMA  =   0.10  broadening in eV -4-tet -1-fermi 0-gaus

 Electronic relaxation 2 (details)
   IALGO  =     38    algorithm
   LDIAG  =      T    sub-space diagonalisation (order eigenvalues)
   LSUBROT=      F    optimize rotation matrix (better conditioning)
   TURBO    =      0    0=normal 1=particle mesh
   IRESTART =      0    0=no restart 2=restart with 2 vectors
   NREBOOT  =      0    no. of reboots
   NMIN     =      0    reboot dimension
   EREF     =   0.00    reference energy to select bands
   IMIX   =      4    mixing-type and parameters
     AMIX     =   0.40;   BMIX     =  1.00
     AMIX_MAG =   1.60;   BMIX_MAG =  1.00
     AMIN     =   0.10
     WC   =   100.;   INIMIX=   1;  MIXPRE=   1;  MAXMIX= -45

 Intra band minimization:
   WEIMIN = 0.0000     energy-eigenvalue tresh-hold
   EBREAK =  0.10E-08  absolut break condition
   DEPER  =   0.30     relativ break condition  

   TIME   =   0.40     timestep for ELM

  volume/ion in A,a.u.               =       9.44        63.71
  Fermi-wavevector in a.u.,A,eV,Ry     =   1.206917  2.280742 19.818908  1.456649
  Thomas-Fermi vector in A             =   2.342570
 
 Write flags
   LWAVE  =      F    write WAVECAR
   LCHARG =      T    write CHGCAR
   LVTOT  =      F    write LOCPOT, total local potential
   LVHAR  =      F    write LOCPOT, Hartree potential only
   LELF   =      F    write electronic localiz. function (ELF)
   LORBIT =     10    0 simple, 1 ext, 2 COOP (PROOUT)


 Dipole corrections
   LMONO  =      F    monopole corrections only (constant potential shift)
   LDIPOL =      F    correct potential (dipole corrections)
   IDIPOL =      0    1-x, 2-y, 3-z, 4-all directions 
   EPSILON=  1.0000000 bulk dielectric constant

 Exchange correlation treatment:
   GGA     =    --    GGA type
   LEXCH   =     8    internal setting for exchange type
   VOSKOWN=      0    Vosko Wilk Nusair interpolation
   LHFCALC =     F    Hartree Fock is set to
   LHFONE  =     F    Hartree Fock one center treatment
   AEXX    =    0.0000 exact exchange contribution

 Linear response parameters
   LEPSILON=     F    determine dielectric tensor
   LRPA    =     F    only Hartree local field effects (RPA)
   LNABLA  =     F    use nabla operator in PAW spheres
   LVEL    =     F    velocity operator in full k-point grid
   LINTERFAST=   F  fast interpolation
   KINTER  =     0    interpolate to denser k-point grid
   CSHIFT  =0.1000    complex shift for real part using Kramers Kronig
   OMEGAMAX=  -1.0    maximum frequency
   DEG_THRESHOLD= 0.2000000E-02 threshold for treating states as degnerate
   RTIME   =    0.100 relaxation time in fs

 Orbital magnetization related:
   ORBITALMAG=     F  switch on orbital magnetization
   LCHIMAG   =     F  perturbation theory with respect to B field
   DQ        =  0.001000  dq finite difference perturbation B field

 PEAD related settings:
   LPEAD      =     T    switch on PEAD
   IPEAD      =     4    finite difference order for dpsi/dk
   LCALCPOL   =     T    calculate macroscopic polarization
   LCALCEPS   =     F    calculate dielectric tensor
   EFIELD_PEAD=    0.0000    0.0000    0.0000
   SKIP_EDOTP =     F
   LRPA       =     F
   SKIP_SCF   =     F


--------------------------------------------------------------------------------------------------------


 Static calculation
 charge density and potential will be updated during run
 spin polarized calculation
 Variant of blocked Davidson
 Davidson routine will perform the subspace rotation
 perform sub-space diagonalisation
    after iterative eigenvector-optimisation
 modified Broyden-mixing scheme, WC =      100.0
 initial mixing is a Kerker type mixing with AMIX =  0.4000 and BMIX =      1.0000
 Hartree-type preconditioning will be used
 using additional bands           66
 reciprocal scheme for non local part
 use partial core corrections
 calculate Harris-corrections to forces 
   (improved forces if not selfconsistent)
 use gradient corrections 
 use of overlap-Matrix (Vanderbilt PP)
 Gauss-broadening in eV      SIGMA  =   0.10


--------------------------------------------------------------------------------------------------------


  energy-cutoff  :      700.00
  volume of cell :      868.50
      direct lattice vectors                 reciprocal lattice vectors
     8.497791730  0.000000000  0.000000000     0.117677631  0.000000000  0.000000000
     0.000000000  9.071661144  0.000000000     0.000000000  0.110233394  0.000000000
     0.000000000  0.000000000 11.266230556     0.000000000  0.000000000  0.088760832

  length of vectors
     8.497791730  9.071661144 11.266230556     0.117677631  0.110233394  0.088760832


 
 k-points in units of 2pi/SCALE and weight: Automatic mesh                          
   0.01470970  0.01377917  0.00000000       0.083
   0.04412911  0.01377917  0.00000000       0.083
   0.01470970  0.04133752  0.00000000       0.083
   0.04412911  0.04133752  0.00000000       0.083
   0.01470970  0.01377917  0.02958694       0.167
   0.04412911  0.01377917  0.02958694       0.167
   0.01470970  0.04133752  0.02958694       0.167
   0.04412911  0.04133752  0.02958694       0.167
 
 k-points in reciprocal lattice and weights: Automatic mesh                          
   0.12500000  0.12500000  0.00000000       0.083
   0.37500000  0.12500000  0.00000000       0.083
   0.12500000  0.37500000  0.00000000       0.083
   0.37500000  0.37500000  0.00000000       0.083
   0.12500000  0.12500000  0.33333333       0.167
   0.37500000  0.12500000  0.33333333       0.167
   0.12500000  0.37500000  0.33333333       0.167
   0.37500000  0.37500000  0.33333333       0.167
 
 position of ions in fractional coordinates (direct lattice) 
   0.98392943  0.00151609  0.49825452
   0.01607054  0.99848389  0.99825448
   0.48392949  0.49848394  0.49825452
   0.51607057  0.50151611  0.99825448
   0.85820318  0.84639290  0.57575814
   0.14179685  0.15360714  0.07575807
   0.35820315  0.65360710  0.57575814
   0.64179682  0.34639287  0.07575807
   0.70465849  0.64814378  0.56130516
   0.29534148  0.35185617  0.06130518
   0.20465852  0.85185622  0.56130516
   0.79534151  0.14814383  0.06130518
   0.98666305  0.11956568  0.64985897
   0.01333695  0.88043430  0.14985906
   0.48666305  0.38043432  0.64985897
   0.51333695  0.61956570  0.14985906
   0.01924220  0.11818958  0.84612991
   0.98075775  0.88181036  0.34612989
   0.51924220  0.38181041  0.84612991
   0.48075780  0.61818959  0.34612989
   0.15776883  0.12118232  0.43024644
   0.84223119  0.87881766  0.93024644
   0.65776881  0.37881769  0.43024644
   0.34223116  0.62118234  0.93024644
   0.30870997  0.32161648  0.41476862
   0.69129006  0.67838355  0.91476857
   0.80870994  0.17838352  0.41476862
   0.19129005  0.82161645  0.91476857
   0.74034873  0.77691659  0.53133228
   0.25965125  0.22308341  0.03133221
   0.24034875  0.72308341  0.53133228
   0.75965127  0.27691659  0.03133221
   0.01440971  0.05216374  0.74665831
   0.98559022  0.94783622  0.24665827
   0.51440972  0.44783627  0.74665831
   0.48559028  0.55216373  0.24665827
   0.18960935  0.25636712  0.45467843
   0.81039065  0.74363288  0.95467851
   0.68960935  0.24363288  0.45467843
   0.31039065  0.75636712  0.95467851
   0.00743426  0.50537366  0.74812713
   0.99256571  0.49462634  0.24812713
   0.50743423  0.99462628  0.74812713
   0.49256571  0.00537367  0.24812713
   0.66885664  0.83509602  0.46356009
   0.33114330  0.16490397  0.96356009
   0.16885668  0.66490398  0.46356009
   0.83114336  0.33509602  0.96356009
   0.03614354  0.93306119  0.74407281
   0.96385642  0.06693882  0.24407279
   0.53614358  0.56693886  0.74407281
   0.46385648  0.43306119  0.24407279
   0.10756379  0.31579225  0.51414569
   0.89243620  0.68420773  0.01414570
   0.60756380  0.18420774  0.51414569
   0.39243620  0.81579227  0.01414570
   0.08848762  0.70681317  0.80503541
   0.91151238  0.29318681  0.30503538
   0.58848762  0.79318683  0.80503541
   0.41151238  0.20681318  0.30503538
   0.95497838  0.71172805  0.68426448
   0.04502168  0.28827200  0.18426450
   0.45497830  0.78827195  0.68426448
   0.54502167  0.21172801  0.18426450
   0.18596127  0.48177247  0.86845313
   0.81403876  0.51822753  0.36845317
   0.68596124  0.01822758  0.86845313
   0.31403876  0.98177252  0.36845317
   0.08018343  0.31786724  0.83347884
   0.91981654  0.68213276  0.33347884
   0.58018346  0.18213283  0.83347884
   0.41981657  0.81786724  0.33347884
   0.82886379  0.49869631  0.62748055
   0.17113619  0.50130369  0.12748049
   0.32886379  0.00130377  0.62748055
   0.67113621  0.99869631  0.12748049
   0.91040866  0.32395520  0.66813692
   0.08959136  0.67604480  0.16813692
   0.41040863  0.17604480  0.66813692
   0.58959134  0.82395520  0.16813692
   0.01898346  0.65170390  0.74449281
   0.98101658  0.34829610  0.24449277
   0.51898348  0.84829610  0.74449281
   0.48101652  0.15170390  0.24449277
   0.09924991  0.42836867  0.82234218
   0.90075009  0.57163136  0.32234220
   0.59924991  0.07163133  0.82234218
   0.40075009  0.92836864  0.32234220
   0.90354411  0.43572696  0.67801906
   0.09645584  0.56427304  0.17801905
   0.40354416  0.06427305  0.67801906
   0.59645589  0.93572696  0.17801905
 
 position of ions in cartesian coordinates  (Angst):
   8.36122739  0.01375347  5.61345034
   0.13656407  9.05790752 11.24656514
   4.11233200  4.52207743  5.61345034
   4.38546020  4.54958419 11.24656514
   7.29283186  7.67818959  6.48662393
   1.20496011  1.39347192  0.85350794
   3.04393576  5.92930213  6.48662393
   5.45385573  3.14235877  0.85350794
   5.98804109  5.87974075  6.32379329
   2.50975041  3.19191991  0.69067825
   1.73914546  7.72775097  6.32379329
   6.75864651  1.34391066  0.69067825
   8.38445715  1.08465930  7.32146100
   0.11333461  7.98700160  1.68834667
   4.13556128  3.45117127  7.32146100
   4.36223045  5.62049012  1.68834667
   0.16351618  1.07217586  9.53269466
   8.33427508  7.99948475  3.89957914
   4.41241204  3.46365465  9.53269466
   4.08537969  5.60800649  3.89957914
   1.34068665  1.09932498  4.84725562
   7.15710520  7.97233605 10.48037089
   5.58958239  3.43650571  4.84725562
   2.90820910  5.63515567 10.48037089
   2.62335300  2.91759569  4.67287886
   5.87443897  6.15406569 10.30599366
   6.87224863  1.61823488  4.67287886
   1.62554298  7.45342603 10.30599366
   6.29132928  7.04792401  5.98611197
   2.20646221  2.02373713  0.35299586
   2.04243365  6.55956770  5.98611197
   6.45535831  2.51209344  0.35299586
   0.12245074  0.47321177  8.41202472
   8.37534043  8.59844899  2.77890897
   4.37134668  4.06261889  8.41202472
   4.12644505  5.00904225  2.77890897
   1.61126075  2.32567566  5.12251201
   6.88653098  6.74598548 10.75562823
   5.86015662  2.21015491  5.12251201
   2.63763511  6.86150623 10.75562823
   0.06317481  4.58457862  8.42857268
   8.43461669  4.48708253  2.79545740
   4.31207043  9.02291262  8.42857268
   4.18572082  0.04874811  2.79545740
   5.68380443  7.57570813  5.22257484
   2.81398683  1.49595290 10.85569011
   1.43490892  6.03178359  5.22257484
   7.06288317  3.03987755 10.85569011
   0.30714032  8.46441497  8.38289586
   8.19065113  0.60724630  2.74978035
   4.55603647  5.14307723  8.38289586
   3.94175574  3.92858440  2.74978035
   0.91405465  2.86476024  5.79248384
   7.58373697  6.20690066  0.15936870
   5.16295062  1.67107021  5.79248384
   3.33484111  7.40059105  0.15936870
   0.75194935  6.41196953  9.06971449
   7.74584238  2.65969138  3.43659897
   5.00084522  7.19552219  9.06971449
   3.49694651  1.87613907  3.43659897
   8.11520740  6.45655568  7.70908141
   0.38258490  2.61510594  2.07596637
   3.86631082  7.15093603  7.70908141
   4.63148067  1.92072475  2.07596637
   1.58026012  4.37047660  9.78419320
   6.91753185  4.70118455  4.15107840
   5.82915575  0.16535445  9.78419320
   2.66863598  8.90630765  4.15107840
   0.68138213  2.88358388  9.39016481
   7.81640943  6.18807726  3.75704953
   4.93027817  1.65224729  9.39016481
   3.56751380  7.41941445  3.75704953
   7.04351188  4.52400390  7.06934050
   1.45427973  4.54765725  1.43622464
   2.79461602  0.01182733  7.06934050
   5.70317571  9.05983447  1.43622464
   7.73646320  2.93881180  7.52738462
   0.76132871  6.13284935  1.89426934
   3.48756709  1.59701878  7.52738462
   5.01022440  7.47464237  1.89426934
   0.16131748  5.91203694  8.38762766
   8.33647459  3.15962421  2.75451191
   4.41021348  7.69545478  8.38762766
   4.08757825  1.37620637  2.75451191
   0.84340509  3.88601539  9.26469658
   7.65438670  5.18564599  3.63158154
   5.09230089  0.64981518  9.26469658
   3.40549084  8.42184572  3.63158154
   7.67812964  3.95276732  7.63871902
   0.81966161  5.11889382  2.00560363
   3.42923425  0.58306337  7.63871902
   5.06855795  8.48859790  2.00560363
 


--------------------------------------------------------------------------------------------------------


 k-point  1 :   0.1250 0.1250 0.0000  plane waves:   36542
 k-point  2 :   0.3750 0.1250 0.0000  plane waves:   36531
 k-point  3 :   0.1250 0.3750 0.0000  plane waves:   36530
 k-point  4 :   0.3750 0.3750 0.0000  plane waves:   36501
 k-point  5 :   0.1250 0.1250 0.3333  plane waves:   36513
 k-point  6 :   0.3750 0.1250 0.3333  plane waves:   36533
 k-point  7 :   0.1250 0.3750 0.3333  plane waves:   36521
 k-point  8 :   0.3750 0.3750 0.3333  plane waves:   36502

 maximum and minimum number of plane-waves per node :     36542    36501

 maximum number of plane-waves:     36542
 maximum index in each direction: 
   IXMAX=   18   IYMAX=   19   IZMAX=   24
   IXMIN=  -18   IYMIN=  -19   IZMIN=  -24

 NGX is ok and might be reduce to  74
 NGY is ok and might be reduce to  78
 NGZ is ok and might be reduce to  98

 serial   3D FFT for wavefunctions
 parallel 3D FFT for charge:
    minimum data exchange during FFTs selected (reduces bandwidth)


 total amount of memory used by VASP on root node   401674. kBytes
========================================================================

   base      :      30000. kBytes
   nonl-proj :     264517. kBytes
   fftplans  :       3571. kBytes
   grid      :      53048. kBytes
   one-center:       2861. kBytes
   wavefun   :      47677. kBytes
 
     INWAV:  cpu time    0.0000: real time    0.0000
 Broyden mixing: mesh for mixing (old mesh)
   NGX = 37   NGY = 39   NGZ = 49
  (NGX  = 96   NGY  =100   NGZ  =126)
  gives a total of  70707 points

 initial charge density was supplied:
 number of electron     348.0000183 magnetization      -0.0000000
 keeping initial charge density in first step


--------------------------------------------------------------------------------------------------------


 Maximum index for augmentation-charges          338 (set IRDMAX)


--------------------------------------------------------------------------------------------------------


 First call to EWALD:  gamma=   0.186
 Maximum number of real-space cells 3x 3x 2
 Maximum number of reciprocal cells 3x 3x 3

 FEWALD executed in parallel
    FEWALD:  cpu time    0.0028: real time    0.0028


----------------------------------------- Iteration    1(   1)  ---------------------------------------


    POTLOK:  cpu time    0.0910: real time    0.0910
    SETDIJ:  cpu time    0.0135: real time    0.0135
     EDDAV:  cpu time   26.9625: real time   26.5950
       DOS:  cpu time    0.0033: real time    0.0033
    --------------------------------------------
      LOOP:  cpu time   27.0721: real time   26.7047

 eigenvalue-minimisations  :  7680
 total energy-change (2. order) : 0.3177258E+04  (-0.1961360E+05)
 number of electron     348.0000183 magnetization      -0.0000000
 augmentation part      348.0000183 magnetization      -0.0000000

 Free energy of the ion-electron system (eV)
  ---------------------------------------------------
  alpha Z        PSCENC =       598.46793209
  Ewald energy   TEWEN  =    -11209.53528849
  -Hartree energ DENC   =    -10134.82127142
  -exchange      EXHF   =         0.00000000
  -V(xc)+E(xc)   XCENC  =      1444.90895825
  PAW double counting   =     15753.99955398   -16278.15878960
  entropy T*S    EENTRO =        -0.06107506
  eigenvalues    EBANDS =      1083.13921012
  atomic energy  EATOM  =     21919.31891225
  Solvation  Ediel_sol  =         0.00000000
  ---------------------------------------------------
  free energy    TOTEN  =      3177.25814212 eV

  energy without entropy =     3177.31921718  energy(sigma->0) =     3177.28867965


--------------------------------------------------------------------------------------------------------




----------------------------------------- Iteration    1(   2)  ---------------------------------------


     EDDAV:  cpu time   28.9653: real time   28.5741
       DOS:  cpu time    0.0037: real time    0.0037
    --------------------------------------------
      LOOP:  cpu time   28.9694: real time   28.5784

 eigenvalue-minimisations  :  8352
 total energy-change (2. order) :-0.3274600E+04  (-0.3023158E+04)
 number of electron     348.0000183 magnetization      -0.0000000
 augmentation part      348.0000183 magnetization      -0.0000000

 Free energy of the ion-electron system (eV)
  ---------------------------------------------------
  alpha Z        PSCENC =       598.46793209
  Ewald energy   TEWEN  =    -11209.53528849
  -Hartree energ DENC   =    -10134.82127142
  -exchange      EXHF   =         0.00000000
  -V(xc)+E(xc)   XCENC  =      1444.90895825
  PAW double counting   =     15753.99955398   -16278.15878960
  entropy T*S    EENTRO =        -0.02541731
  eigenvalues    EBANDS =     -2191.49623053
  atomic energy  EATOM  =     21919.31891225
  Solvation  Ediel_sol  =         0.00000000
  ---------------------------------------------------
  free energy    TOTEN  =       -97.34164078 eV

  energy without entropy =      -97.31622347  energy(sigma->0) =      -97.32893212


--------------------------------------------------------------------------------------------------------




----------------------------------------- Iteration    1(   3)  ---------------------------------------


     EDDAV:  cpu time   32.1234: real time   31.7063
       DOS:  cpu time    0.0040: real time    0.0040
    CHARGE:  cpu time    1.1224: real time    1.1189
    MIXING:  cpu time    0.0011: real time    0.0011
    --------------------------------------------
      LOOP:  cpu time   33.2513: real time   32.8308

 eigenvalue-minimisations  :  9600
 total energy-change (2. order) :-0.4451703E+03  (-0.4355319E+03)
 number of electron     348.0000185 magnetization      -0.0000000
 augmentation part       48.4485147 magnetization      -0.0000000

 Broyden mixing:
  rms(total) = 0.70493E+00    rms(broyden)= 0.70487E+00
  rms(prec ) = 0.83069E+00
  weight for this iteration     100.00

 Free energy of the ion-electron system (eV)
  ---------------------------------------------------
  alpha Z        PSCENC =       598.46793209
  Ewald energy   TEWEN  =    -11209.53528849
  -Hartree energ DENC   =    -10134.82127142
  -exchange      EXHF   =         0.00000000
  -V(xc)+E(xc)   XCENC  =      1444.90895825
  PAW double counting   =     15753.99955398   -16278.15878960
  entropy T*S    EENTRO =        -0.00001519
  eigenvalues    EBANDS =     -2636.69191232
  atomic energy  EATOM  =     21919.31891225
  Solvation  Ediel_sol  =         0.00000000
  ---------------------------------------------------
  free energy    TOTEN  =      -542.51192044 eV

  energy without entropy =     -542.51190526  energy(sigma->0) =     -542.51191285


--------------------------------------------------------------------------------------------------------




----------------------------------------- Iteration    1(   4)  ---------------------------------------


    POTLOK:  cpu time    0.0906: real time    0.0905
    SETDIJ:  cpu time    0.0147: real time    0.0147
     EDDAV:  cpu time   34.8488: real time   34.4233
       DOS:  cpu time    0.0041: real time    0.0041
    CHARGE:  cpu time    1.0925: real time    1.0890
    MIXING:  cpu time    0.0011: real time    0.0011
    --------------------------------------------
      LOOP:  cpu time   36.0523: real time   35.6232

 eigenvalue-minimisations  : 10608
 total energy-change (2. order) :-0.1954667E+02  (-0.2055775E+02)
 number of electron     348.0000181 magnetization      -0.0000000
 augmentation part       49.0362182 magnetization      -0.0000000

 Broyden mixing:
  rms(total) = 0.60390E+00    rms(broyden)= 0.60384E+00
  rms(prec ) = 0.72270E+00
  weight for this iteration     100.00

 eigenvalues of (default mixing * dielectric matrix)
  average eigenvalue GAMMA=   0.5134
  0.5134

 Free energy of the ion-electron system (eV)
  ---------------------------------------------------
  alpha Z        PSCENC =       598.46793209
  Ewald energy   TEWEN  =    -11209.53528849
  -Hartree energ DENC   =    -10061.57523273
  -exchange      EXHF   =         0.00000000
  -V(xc)+E(xc)   XCENC  =      1440.28269401
  PAW double counting   =     15682.77234693   -16209.60897159
  entropy T*S    EENTRO =        -0.00000075
  eigenvalues    EBANDS =     -2722.18097899
  atomic energy  EATOM  =     21919.31891225
  Solvation  Ediel_sol  =         0.00000000
  ---------------------------------------------------
  free energy    TOTEN  =      -562.05858727 eV

  energy without entropy =     -562.05858652  energy(sigma->0) =     -562.05858689


--------------------------------------------------------------------------------------------------------




----------------------------------------- Iteration    1(   5)  ---------------------------------------


    POTLOK:  cpu time    0.0911: real time    0.0910
    SETDIJ:  cpu time    0.0134: real time    0.0134
     EDDAV:  cpu time   36.0467: real time   35.6252
       DOS:  cpu time    0.0042: real time    0.0042
    CHARGE:  cpu time    1.0968: real time    1.0938
    MIXING:  cpu time    0.0012: real time    0.0012
    --------------------------------------------
      LOOP:  cpu time   37.2539: real time   36.8295

 eigenvalue-minimisations  : 11088
 total energy-change (2. order) : 0.1952643E+00  (-0.4536854E+00)
 number of electron     348.0000182 magnetization      -0.0000000
 augmentation part       49.1910490 magnetization      -0.0000000

 Broyden mixing:
  rms(total) = 0.35203E+00    rms(broyden)= 0.35201E+00
  rms(prec ) = 0.41647E+00
  weight for this iteration     100.00

 eigenvalues of (default mixing * dielectric matrix)
  average eigenvalue GAMMA=   0.4988
  0.4988  0.4988

 Free energy of the ion-electron system (eV)
  ---------------------------------------------------
  alpha Z        PSCENC =       598.46793209
  Ewald energy   TEWEN  =    -11209.53528849
  -Hartree energ DENC   =    -10085.60133663
  -exchange      EXHF   =         0.00000000
  -V(xc)+E(xc)   XCENC  =      1442.11241407
  PAW double counting   =     15714.01832396   -16238.01519558
  entropy T*S    EENTRO =        -0.00000010
  eigenvalues    EBANDS =     -2702.62908452
  atomic energy  EATOM  =     21919.31891225
  Solvation  Ediel_sol  =         0.00000000
  ---------------------------------------------------
  free energy    TOTEN  =      -561.86332296 eV

  energy without entropy =     -561.86332285  energy(sigma->0) =     -561.86332291


--------------------------------------------------------------------------------------------------------




----------------------------------------- Iteration    1(   6)  ---------------------------------------


    POTLOK:  cpu time    0.0770: real time    0.0769
    SETDIJ:  cpu time    0.0132: real time    0.0132
     EDDAV:  cpu time   39.4616: real time   39.0002
       DOS:  cpu time    0.0041: real time    0.0041
    CHARGE:  cpu time    1.0940: real time    1.0900
    MIXING:  cpu time    0.0015: real time    0.0015
    --------------------------------------------
      LOOP:  cpu time   40.6519: real time   40.1864

 eigenvalue-minimisations  : 12240
 total energy-change (2. order) : 0.7753195E-01  (-0.4284158E-01)
 number of electron     348.0000183 magnetization      -0.0000000
 augmentation part       49.0491849 magnetization      -0.0000000

 Broyden mixing:
  rms(total) = 0.23921E+00    rms(broyden)= 0.23920E+00
  rms(prec ) = 0.28409E+00
  weight for this iteration     100.00

 eigenvalues of (default mixing * dielectric matrix)
  average eigenvalue GAMMA=   0.5830
  0.6467  0.6467  0.4555

 Free energy of the ion-electron system (eV)
  ---------------------------------------------------
  alpha Z        PSCENC =       598.46793209
  Ewald energy   TEWEN  =    -11209.53528849
  -Hartree energ DENC   =    -10100.81455455
  -exchange      EXHF   =         0.00000000
  -V(xc)+E(xc)   XCENC  =      1442.93694760
  PAW double counting   =     15734.48166006   -16259.45022107
  entropy T*S    EENTRO =        -0.00000021
  eigenvalues    EBANDS =     -2687.19117869
  atomic energy  EATOM  =     21919.31891225
  Solvation  Ediel_sol  =         0.00000000
  ---------------------------------------------------
  free energy    TOTEN  =      -561.78579101 eV

  energy without entropy =     -561.78579080  energy(sigma->0) =     -561.78579091


--------------------------------------------------------------------------------------------------------




----------------------------------------- Iteration    1(   7)  ---------------------------------------


    POTLOK:  cpu time    0.0780: real time    0.0780
    SETDIJ:  cpu time    0.0144: real time    0.0144
     EDDAV:  cpu time   34.0732: real time   33.6402
       DOS:  cpu time    0.0041: real time    0.0041
    CHARGE:  cpu time    1.0862: real time    1.0829
    MIXING:  cpu time    0.0014: real time    0.0014
    --------------------------------------------
      LOOP:  cpu time   35.2577: real time   34.8215

 eigenvalue-minimisations  : 10320
 total energy-change (2. order) : 0.5099094E-01  (-0.3543951E-02)
 number of electron     348.0000183 magnetization      -0.0000000
 augmentation part       49.0196738 magnetization      -0.0000000

 Broyden mixing:
  rms(total) = 0.18171E+00    rms(broyden)= 0.18171E+00
  rms(prec ) = 0.21502E+00
  weight for this iteration     100.00

 eigenvalues of (default mixing * dielectric matrix)
  average eigenvalue GAMMA=   0.6652
  0.8337  0.8337  0.4967  0.4967

 Free energy of the ion-electron system (eV)
  ---------------------------------------------------
  alpha Z        PSCENC =       598.46793209
  Ewald energy   TEWEN  =    -11209.53528849
  -Hartree energ DENC   =    -10109.44547819
  -exchange      EXHF   =         0.00000000
  -V(xc)+E(xc)   XCENC  =      1443.43996485
  PAW double counting   =     15742.11970975   -16267.03490398
  entropy T*S    EENTRO =        -0.00000019
  eigenvalues    EBANDS =     -2679.06564816
  atomic energy  EATOM  =     21919.31891225
  Solvation  Ediel_sol  =         0.00000000
  ---------------------------------------------------
  free energy    TOTEN  =      -561.73480007 eV

  energy without entropy =     -561.73479988  energy(sigma->0) =     -561.73479997


--------------------------------------------------------------------------------------------------------




----------------------------------------- Iteration    1(   8)  ---------------------------------------


    POTLOK:  cpu time    0.0749: real time    0.0749
    SETDIJ:  cpu time    0.0132: real time    0.0132
     EDDAV:  cpu time   37.1361: real time   36.6748
       DOS:  cpu time    0.0042: real time    0.0042
    CHARGE:  cpu time    1.0867: real time    1.0829
    MIXING:  cpu time    0.0015: real time    0.0015
    --------------------------------------------
      LOOP:  cpu time   38.3170: real time   37.8520

 eigenvalue-minimisations  : 11520
 total energy-change (2. order) : 0.3177760E-01  (-0.2400608E-02)
 number of electron     348.0000183 magnetization      -0.0000000
 augmentation part       48.9920738 magnetization      -0.0000000

 Broyden mixing:
  rms(total) = 0.12919E+00    rms(broyden)= 0.12919E+00
  rms(prec ) = 0.15235E+00
  weight for this iteration     100.00

 eigenvalues of (default mixing * dielectric matrix)
  average eigenvalue GAMMA=   0.7098
  0.9945  0.9945  0.5444  0.5444  0.4714

 Free energy of the ion-electron system (eV)
  ---------------------------------------------------
  alpha Z        PSCENC =       598.46793209
  Ewald energy   TEWEN  =    -11209.53528849
  -Hartree energ DENC   =    -10116.78844834
  -exchange      EXHF   =         0.00000000
  -V(xc)+E(xc)   XCENC  =      1443.86858175
  PAW double counting   =     15747.86426271   -16272.66037824
  entropy T*S    EENTRO =        -0.00000019
  eigenvalues    EBANDS =     -2672.23859600
  atomic energy  EATOM  =     21919.31891225
  Solvation  Ediel_sol  =         0.00000000
  ---------------------------------------------------
  free energy    TOTEN  =      -561.70302246 eV

  energy without entropy =     -561.70302227  energy(sigma->0) =     -561.70302237


--------------------------------------------------------------------------------------------------------




----------------------------------------- Iteration    1(   9)  ---------------------------------------


    POTLOK:  cpu time    0.0770: real time    0.0769
    SETDIJ:  cpu time    0.0129: real time    0.0129
     EDDAV:  cpu time   36.1162: real time   35.6710
       DOS:  cpu time    0.0042: real time    0.0042
    CHARGE:  cpu time    1.0827: real time    1.0797
    MIXING:  cpu time    0.0016: real time    0.0016
    --------------------------------------------
      LOOP:  cpu time   37.2950: real time   36.8468

 eigenvalue-minimisations  : 11136
 total energy-change (2. order) : 0.1082135E-01  (-0.5268896E-03)
 number of electron     348.0000183 magnetization      -0.0000000
 augmentation part       48.9782918 magnetization      -0.0000000

 Broyden mixing:
  rms(total) = 0.10424E+00    rms(broyden)= 0.10424E+00
  rms(prec ) = 0.12289E+00
  weight for this iteration     100.00

 eigenvalues of (default mixing * dielectric matrix)
  average eigenvalue GAMMA=   0.7424
  1.1441  1.1441  0.6048  0.6048  0.4785  0.4785

 Free energy of the ion-electron system (eV)
  ---------------------------------------------------
  alpha Z        PSCENC =       598.46793209
  Ewald energy   TEWEN  =    -11209.53528849
  -Hartree energ DENC   =    -10120.25912623
  -exchange      EXHF   =         0.00000000
  -V(xc)+E(xc)   XCENC  =      1444.06912224
  PAW double counting   =     15749.69091059   -16274.39062900
  entropy T*S    EENTRO =        -0.00000019
  eigenvalues    EBANDS =     -2669.05403437
  atomic energy  EATOM  =     21919.31891225
  Solvation  Ediel_sol  =         0.00000000
  ---------------------------------------------------
  free energy    TOTEN  =      -561.69220111 eV

  energy without entropy =     -561.69220092  energy(sigma->0) =     -561.69220102


--------------------------------------------------------------------------------------------------------




----------------------------------------- Iteration    1(  10)  ---------------------------------------


    POTLOK:  cpu time    0.0846: real time    0.0844
    SETDIJ:  cpu time    0.0130: real time    0.0130
     EDDAV:  cpu time   36.8206: real time   36.3520
       DOS:  cpu time    0.0040: real time    0.0040
    CHARGE:  cpu time    1.0927: real time    1.0894
    MIXING:  cpu time    0.0018: real time    0.0018
    --------------------------------------------
      LOOP:  cpu time   38.0171: real time   37.5451

 eigenvalue-minimisations  : 11328
 total energy-change (2. order) : 0.6961044E-02  (-0.2687416E-03)
 number of electron     348.0000183 magnetization      -0.0000000
 augmentation part       48.9695707 magnetization      -0.0000000

 Broyden mixing:
  rms(total) = 0.85030E-01    rms(broyden)= 0.85030E-01
  rms(prec ) = 0.10018E+00
  weight for this iteration     100.00

 eigenvalues of (default mixing * dielectric matrix)
  average eigenvalue GAMMA=   0.7988
  1.3506  1.3506  0.6930  0.6930  0.5148  0.5148  0.4747

 Free energy of the ion-electron system (eV)
  ---------------------------------------------------
  alpha Z        PSCENC =       598.46793209
  Ewald energy   TEWEN  =    -11209.53528849
  -Hartree energ DENC   =    -10122.97567429
  -exchange      EXHF   =         0.00000000
  -V(xc)+E(xc)   XCENC  =      1444.22659401
  PAW double counting   =     15750.59056463   -16275.18646772
  entropy T*S    EENTRO =        -0.00000019
  eigenvalues    EBANDS =     -2666.59181236
  atomic energy  EATOM  =     21919.31891225
  Solvation  Ediel_sol  =         0.00000000
  ---------------------------------------------------
  free energy    TOTEN  =      -561.68524007 eV

  energy without entropy =     -561.68523988  energy(sigma->0) =     -561.68523998


--------------------------------------------------------------------------------------------------------




----------------------------------------- Iteration    1(  11)  ---------------------------------------


    POTLOK:  cpu time    0.0804: real time    0.0803
    SETDIJ:  cpu time    0.0132: real time    0.0132
     EDDAV:  cpu time   36.0678: real time   35.6212
       DOS:  cpu time    0.0041: real time    0.0041
    CHARGE:  cpu time    1.0876: real time    1.0845
    MIXING:  cpu time    0.0019: real time    0.0019
    --------------------------------------------
      LOOP:  cpu time   37.2555: real time   36.8058

 eigenvalue-minimisations  : 11136
 total energy-change (2. order) : 0.8558130E-02  (-0.8345906E-03)
 number of electron     348.0000183 magnetization      -0.0000000
 augmentation part       48.9528412 magnetization      -0.0000000

 Broyden mixing:
  rms(total) = 0.51757E-01    rms(broyden)= 0.51756E-01
  rms(prec ) = 0.60927E-01
  weight for this iteration     100.00

 eigenvalues of (default mixing * dielectric matrix)
  average eigenvalue GAMMA=   0.8159
  1.4973  1.4973  0.7521  0.7521  0.5408  0.5408  0.4733  0.4733

 Free energy of the ion-electron system (eV)
  ---------------------------------------------------
  alpha Z        PSCENC =       598.46793209
  Ewald energy   TEWEN  =    -11209.53528849
  -Hartree energ DENC   =    -10127.68944255
  -exchange      EXHF   =         0.00000000
  -V(xc)+E(xc)   XCENC  =      1444.49842529
  PAW double counting   =     15752.09966851   -16276.52452931
  entropy T*S    EENTRO =        -0.00000019
  eigenvalues    EBANDS =     -2662.31235955
  atomic energy  EATOM  =     21919.31891225
  Solvation  Ediel_sol  =         0.00000000
  ---------------------------------------------------
  free energy    TOTEN  =      -561.67668194 eV

  energy without entropy =     -561.67668175  energy(sigma->0) =     -561.67668185


--------------------------------------------------------------------------------------------------------




----------------------------------------- Iteration    1(  12)  ---------------------------------------


    POTLOK:  cpu time    0.0773: real time    0.0772
    SETDIJ:  cpu time    0.0131: real time    0.0131
     EDDAV:  cpu time   38.0258: real time   37.5474
       DOS:  cpu time    0.0041: real time    0.0041
    CHARGE:  cpu time    1.0837: real time    1.0792
    MIXING:  cpu time    0.0020: real time    0.0020
    --------------------------------------------
      LOOP:  cpu time   39.2064: real time   38.7235

 eigenvalue-minimisations  : 11856
 total energy-change (2. order) : 0.2502415E-02  (-0.2117811E-03)
 number of electron     348.0000183 magnetization      -0.0000000
 augmentation part       48.9448504 magnetization      -0.0000000

 Broyden mixing:
  rms(total) = 0.35692E-01    rms(broyden)= 0.35691E-01
  rms(prec ) = 0.42031E-01
  weight for this iteration     100.00

 eigenvalues of (default mixing * dielectric matrix)
  average eigenvalue GAMMA=   0.8830
  1.7601  1.7601  0.8649  0.8649  0.6028  0.6028  0.5054  0.5054  0.4807

 Free energy of the ion-electron system (eV)
  ---------------------------------------------------
  alpha Z        PSCENC =       598.46793209
  Ewald energy   TEWEN  =    -11209.53528849
  -Hartree energ DENC   =    -10129.83882712
  -exchange      EXHF   =         0.00000000
  -V(xc)+E(xc)   XCENC  =      1444.62243443
  PAW double counting   =     15752.83487417   -16277.17403606
  entropy T*S    EENTRO =        -0.00000019
  eigenvalues    EBANDS =     -2660.37018060
  atomic energy  EATOM  =     21919.31891225
  Solvation  Ediel_sol  =         0.00000000
  ---------------------------------------------------
  free energy    TOTEN  =      -561.67417952 eV

  energy without entropy =     -561.67417934  energy(sigma->0) =     -561.67417943


--------------------------------------------------------------------------------------------------------




----------------------------------------- Iteration    1(  13)  ---------------------------------------


    POTLOK:  cpu time    0.0757: real time    0.0756
    SETDIJ:  cpu time    0.0132: real time    0.0132
     EDDAV:  cpu time   35.3956: real time   34.9379
       DOS:  cpu time    0.0041: real time    0.0041
    CHARGE:  cpu time    1.0842: real time    1.0801
    MIXING:  cpu time    0.0022: real time    0.0022
    --------------------------------------------
      LOOP:  cpu time   36.5753: real time   36.1135

 eigenvalue-minimisations  : 10944
 total energy-change (2. order) : 0.2140153E-02  (-0.4088694E-03)
 number of electron     348.0000183 magnetization      -0.0000000
 augmentation part       48.9336741 magnetization      -0.0000000

 Broyden mixing:
  rms(total) = 0.11864E-01    rms(broyden)= 0.11862E-01
  rms(prec ) = 0.13946E-01
  weight for this iteration     100.00

 eigenvalues of (default mixing * dielectric matrix)
  average eigenvalue GAMMA=   0.9762
  2.1576  2.1576  1.0157  1.0157  0.6800  0.6800  0.5410  0.5410  0.4865  0.4865

 Free energy of the ion-electron system (eV)
  ---------------------------------------------------
  alpha Z        PSCENC =       598.46793209
  Ewald energy   TEWEN  =    -11209.53528849
  -Hartree energ DENC   =    -10133.20253057
  -exchange      EXHF   =         0.00000000
  -V(xc)+E(xc)   XCENC  =      1444.81649574
  PAW double counting   =     15753.71051869   -16277.91181014
  entropy T*S    EENTRO =        -0.00000018
  eigenvalues    EBANDS =     -2657.33626875
  atomic energy  EATOM  =     21919.31891225
  Solvation  Ediel_sol  =         0.00000000
  ---------------------------------------------------
  free energy    TOTEN  =      -561.67203937 eV

  energy without entropy =     -561.67203919  energy(sigma->0) =     -561.67203928


--------------------------------------------------------------------------------------------------------




----------------------------------------- Iteration    1(  14)  ---------------------------------------


    POTLOK:  cpu time    0.0771: real time    0.0769
    SETDIJ:  cpu time    0.0147: real time    0.0147
     EDDAV:  cpu time   37.2744: real time   36.7990
       DOS:  cpu time    0.0042: real time    0.0042
    CHARGE:  cpu time    1.0772: real time    1.0727
    MIXING:  cpu time    0.0024: real time    0.0024
    --------------------------------------------
      LOOP:  cpu time   38.4504: real time   37.9704

 eigenvalue-minimisations  : 11424
 total energy-change (2. order) : 0.2126831E-03  (-0.7339144E-04)
 number of electron     348.0000183 magnetization      -0.0000000
 augmentation part       48.9289045 magnetization      -0.0000000

 Broyden mixing:
  rms(total) = 0.30469E-02    rms(broyden)= 0.30459E-02
  rms(prec ) = 0.35898E-02
  weight for this iteration     100.00

 eigenvalues of (default mixing * dielectric matrix)
  average eigenvalue GAMMA=   1.0952
  2.7083  2.7083  1.1789  1.1789  0.7686  0.7686  0.5965  0.5965  0.5217  0.5217
  0.4988

 Free energy of the ion-electron system (eV)
  ---------------------------------------------------
  alpha Z        PSCENC =       598.46793209
  Ewald energy   TEWEN  =    -11209.53528849
  -Hartree energ DENC   =    -10134.37639318
  -exchange      EXHF   =         0.00000000
  -V(xc)+E(xc)   XCENC  =      1444.88364006
  PAW double counting   =     15754.10290135   -16278.25969539
  entropy T*S    EENTRO =        -0.00000018
  eigenvalues    EBANDS =     -2656.27383519
  atomic energy  EATOM  =     21919.31891225
  Solvation  Ediel_sol  =         0.00000000
  ---------------------------------------------------
  free energy    TOTEN  =      -561.67182669 eV

  energy without entropy =     -561.67182650  energy(sigma->0) =     -561.67182659


--------------------------------------------------------------------------------------------------------




----------------------------------------- Iteration    1(  15)  ---------------------------------------


    POTLOK:  cpu time    0.0755: real time    0.0754
    SETDIJ:  cpu time    0.0149: real time    0.0149
     EDDAV:  cpu time   36.6351: real time   36.2084
       DOS:  cpu time    0.0042: real time    0.0042
    CHARGE:  cpu time    1.0820: real time    1.0782
    MIXING:  cpu time    0.0024: real time    0.0024
    --------------------------------------------
      LOOP:  cpu time   37.8144: real time   37.3839

 eigenvalue-minimisations  : 11328
 total energy-change (2. order) : 0.1489864E-04  (-0.3871258E-05)
 number of electron     348.0000183 magnetization      -0.0000000
 augmentation part       48.9278232 magnetization      -0.0000000

 Broyden mixing:
  rms(total) = 0.86423E-03    rms(broyden)= 0.86376E-03
  rms(prec ) = 0.10280E-02
  weight for this iteration     100.00

 eigenvalues of (default mixing * dielectric matrix)
  average eigenvalue GAMMA=   1.1266
  2.9321  2.9321  1.2860  1.2860  0.8401  0.8401  0.6388  0.6388  0.5452  0.5452
  0.5175  0.5175

 Free energy of the ion-electron system (eV)
  ---------------------------------------------------
  alpha Z        PSCENC =       598.46793209
  Ewald energy   TEWEN  =    -11209.53528849
  -Hartree energ DENC   =    -10134.68376818
  -exchange      EXHF   =         0.00000000
  -V(xc)+E(xc)   XCENC  =      1444.90127188
  PAW double counting   =     15754.14469013   -16278.28901163
  entropy T*S    EENTRO =        -0.00000018
  eigenvalues    EBANDS =     -2655.99654965
  atomic energy  EATOM  =     21919.31891225
  Solvation  Ediel_sol  =         0.00000000
  ---------------------------------------------------
  free energy    TOTEN  =      -561.67181179 eV

  energy without entropy =     -561.67181160  energy(sigma->0) =     -561.67181170


--------------------------------------------------------------------------------------------------------




----------------------------------------- Iteration    1(  16)  ---------------------------------------


    POTLOK:  cpu time    0.0751: real time    0.0749
    SETDIJ:  cpu time    0.0131: real time    0.0131
     EDDAV:  cpu time   27.2231: real time   26.8817
       DOS:  cpu time    0.0041: real time    0.0041
    CHARGE:  cpu time    1.0851: real time    1.0825
    MIXING:  cpu time    0.0027: real time    0.0027
    --------------------------------------------
      LOOP:  cpu time   28.4036: real time   28.0594

 eigenvalue-minimisations  :  7680
 total energy-change (2. order) : 0.1014589E-05  (-0.2586415E-06)
 number of electron     348.0000183 magnetization      -0.0000000
 augmentation part       48.9276629 magnetization      -0.0000000

 Broyden mixing:
  rms(total) = 0.37715E-03    rms(broyden)= 0.37707E-03
  rms(prec ) = 0.45111E-03
  weight for this iteration     100.00

 eigenvalues of (default mixing * dielectric matrix)
  average eigenvalue GAMMA=   1.1495
  3.1236  3.1236  1.3936  1.3936  0.9064  0.9064  0.6817  0.6817  0.5778  0.5778
  0.5316  0.5316  0.5147

 Free energy of the ion-electron system (eV)
  ---------------------------------------------------
  alpha Z        PSCENC =       598.46793209
  Ewald energy   TEWEN  =    -11209.53528849
  -Hartree energ DENC   =    -10134.76175067
  -exchange      EXHF   =         0.00000000
  -V(xc)+E(xc)   XCENC  =      1444.90574933
  PAW double counting   =     15754.15742271   -16278.29959460
  entropy T*S    EENTRO =        -0.00000018
  eigenvalues    EBANDS =     -2655.92519321
  atomic energy  EATOM  =     21919.31891225
  Solvation  Ediel_sol  =         0.00000000
  ---------------------------------------------------
  free energy    TOTEN  =      -561.67181077 eV

  energy without entropy =     -561.67181059  energy(sigma->0) =     -561.67181068


--------------------------------------------------------------------------------------------------------




[...]
   -.671E+01 -.463E+02 0.780E+01   0.631E+01 0.537E+02 -.865E+01   0.379E+00 -.735E+01 0.863E+00   0.100E-04 0.112E-03 -.256E-04
   0.671E+01 -.463E+02 0.780E+01   -.631E+01 0.537E+02 -.865E+01   -.379E+00 -.735E+01 0.863E+00   -.102E-04 0.111E-03 -.390E-04
   -.671E+01 0.463E+02 0.780E+01   0.631E+01 -.537E+02 -.865E+01   0.379E+00 0.735E+01 0.863E+00   0.114E-04 -.111E-03 -.266E-04
   -.888E+01 -.611E+02 0.649E+01   0.105E+02 0.692E+02 -.700E+01   -.166E+01 -.816E+01 0.512E+00   -.764E-05 0.260E-03 -.448E-04
   0.888E+01 0.611E+02 0.649E+01   -.105E+02 -.692E+02 -.700E+01   0.166E+01 0.816E+01 0.512E+00   -.887E-05 -.256E-03 -.217E-04
   -.888E+01 0.611E+02 0.649E+01   0.105E+02 -.692E+02 -.700E+01   -.166E+01 0.816E+01 0.512E+00   0.770E-05 -.257E-03 -.328E-04
   0.888E+01 -.611E+02 0.649E+01   -.105E+02 0.692E+02 -.700E+01   0.166E+01 -.816E+01 0.512E+00   0.768E-05 0.263E-03 -.343E-04
   -.422E+02 0.617E+02 -.556E+02   0.470E+02 -.656E+02 0.601E+02   -.475E+01 0.398E+01 -.449E+01   0.147E-03 -.113E-03 0.174E-03
   0.422E+02 -.617E+02 -.556E+02   -.470E+02 0.656E+02 0.601E+02   0.475E+01 -.398E+01 -.449E+01   -.161E-03 0.130E-03 0.144E-03
   -.422E+02 -.617E+02 -.556E+02   0.470E+02 0.656E+02 0.601E+02   -.475E+01 -.398E+01 -.449E+01   0.155E-03 0.119E-03 0.184E-03
   0.422E+02 0.617E+02 -.556E+02   -.470E+02 -.656E+02 0.601E+02   0.475E+01 0.398E+01 -.449E+01   -.151E-03 -.127E-03 0.133E-03
   0.559E+02 0.667E+02 0.558E+02   -.629E+02 -.699E+02 -.585E+02   0.701E+01 0.321E+01 0.278E+01   -.146E-03 -.577E-04 -.205E-03
   -.559E+02 -.667E+02 0.558E+02   0.629E+02 0.699E+02 -.585E+02   -.701E+01 -.321E+01 0.278E+01   0.145E-03 0.739E-04 -.136E-03
   0.559E+02 -.667E+02 0.558E+02   -.629E+02 0.699E+02 -.585E+02   0.701E+01 -.321E+01 0.278E+01   -.140E-03 0.647E-04 -.197E-03
   -.559E+02 0.667E+02 0.558E+02   0.629E+02 -.699E+02 -.585E+02   -.701E+01 0.321E+01 0.278E+01   0.151E-03 -.683E-04 -.143E-03
 -----------------------------------------------------------------------------------------------
   0.626E-02 0.103E-01 0.216E+02   -.171E-12 -.540E-12 0.384E-12   0.888E-15 0.142E-13 -.216E+02   -.104E-06 -.516E-04 -.155E-03
 
 
 POSITION                                       TOTAL-FORCE (eV/Angst)
 -----------------------------------------------------------------------------------
      8.36123      0.01375      5.61345         0.002233      0.001775     -0.000046
      0.13656      9.05791     11.24657        -0.002233     -0.001775     -0.000046
      4.11233      4.52208      5.61345         0.002233     -0.001775     -0.000046
      4.38546      4.54958     11.24657        -0.002233      0.001775     -0.000046
      7.29283      7.67819      6.48662         0.000046      0.000769      0.000423
      1.20496      1.39347      0.85351        -0.000046     -0.000769      0.000423
      3.04394      5.92930      6.48662         0.000046     -0.000769      0.000423
      5.45386      3.14236      0.85351        -0.000046      0.000769      0.000423
      5.98804      5.87974      6.32379        -0.000465      0.000029     -0.001269
      2.50975      3.19192      0.69068         0.000465     -0.000029     -0.001269
      1.73915      7.72775      6.32379        -0.000465     -0.000029     -0.001269
      6.75865      1.34391      0.69068         0.000465      0.000029     -0.001269
      8.38446      1.08466      7.32146         0.001118     -0.001396      0.002802
      0.11333      7.98700      1.68835        -0.001118      0.001396      0.002802
      4.13556      3.45117      7.32146         0.001118      0.001396      0.002802
      4.36223      5.62049      1.68835        -0.001118     -0.001396      0.002802
      0.16352      1.07218      9.53269         0.000798      0.000136     -0.001384
      8.33428      7.99948      3.89958        -0.000798     -0.000136     -0.001384
      4.41241      3.46365      9.53269         0.000798     -0.000136     -0.001384
      4.08538      5.60801      3.89958        -0.000798      0.000136     -0.001384
      1.34069      1.09932      4.84726         0.001050      0.000013      0.000771
      7.15711      7.97234     10.48037        -0.001050     -0.000013      0.000771
      5.58958      3.43651      4.84726         0.001050     -0.000013      0.000771
      2.90821      5.63516     10.48037        -0.001050      0.000013      0.000771
      2.62335      2.91760      4.67288         0.001605     -0.000425     -0.000981
      5.87444      6.15407     10.30599        -0.001605      0.000425     -0.000981
      6.87225      1.61823      4.67288         0.001605      0.000425     -0.000981
      1.62554      7.45343     10.30599        -0.001605     -0.000425     -0.000981
      6.29133      7.04792      5.98611         0.001263     -0.001089      0.001207
      2.20646      2.02374      0.35300        -0.001263      0.001089      0.001207
      2.04243      6.55957      5.98611         0.001263      0.001089      0.001207
      6.45536      2.51209      0.35300        -0.001263     -0.001089      0.001207
      0.12245      0.47321      8.41202         0.000773      0.002931      0.001082
      8.37534      8.59845      2.77891        -0.000773     -0.002931      0.001082
      4.37135      4.06262      8.41202         0.000773     -0.002931      0.001082
      4.12645      5.00904      2.77891        -0.000773      0.002931      0.001082
      1.61126      2.32568      5.12251        -0.001303     -0.001151      0.000904
      6.88653      6.74599     10.75563         0.001303      0.001151      0.000904
      5.86016      2.21015      5.12251        -0.001303      0.001151      0.000904
      2.63764      6.86151     10.75563         0.001303     -0.001151      0.000904
      0.06317      4.58458      8.42857        -0.001693     -0.001763     -0.001762
      8.43462      4.48708      2.79546         0.001693      0.001763     -0.001762
      4.31207      9.02291      8.42857        -0.001693      0.001763     -0.001762
      4.18572      0.04875      2.79546         0.001693     -0.001763     -0.001762
      5.68380      7.57571      5.22257         0.002023      0.000540     -0.000736
      2.81399      1.49595     10.85569        -0.002023     -0.000540     -0.000736
      1.43491      6.03178      5.22257         0.002023     -0.000540     -0.000736
      7.06288      3.03988     10.85569        -0.002023      0.000540     -0.000736
      0.30714      8.46441      8.38290         0.002089     -0.000255     -0.000171
      8.19065      0.60725      2.74978        -0.002089      0.000255     -0.000171
      4.55604      5.14308      8.38290         0.002089      0.000255     -0.000171
      3.94176      3.92858      2.74978        -0.002089     -0.000255     -0.000171
      0.91405      2.86476      5.79248        -0.000484      0.000265     -0.000062
      7.58374      6.20690      0.15937         0.000484     -0.000265     -0.000062
      5.16295      1.67107      5.79248        -0.000484     -0.000265     -0.000062
      3.33484      7.40059      0.15937         0.000484      0.000265     -0.000062
      0.75195      6.41197      9.06971         0.000327     -0.000599     -0.000197
      7.74584      2.65969      3.43660        -0.000327      0.000599     -0.000197
      5.00085      7.19552      9.06971         0.000327      0.000599     -0.000197
      3.49695      1.87614      3.43660        -0.000327     -0.000599     -0.000197
      8.11521      6.45656      7.70908        -0.000102     -0.001015      0.000131
      0.38258      2.61511      2.07597         0.000102      0.001015      0.000131
      3.86631      7.15094      7.70908        -0.000102      0.001015      0.000131
      4.63148      1.92072      2.07597         0.000102     -0.001015      0.000131
      1.58026      4.37048      9.78419        -0.001381     -0.000466     -0.000366
      6.91753      4.70118      4.15108         0.001381      0.000466     -0.000366
      5.82916      0.16535      9.78419        -0.001381      0.000466     -0.000366
      2.66864      8.90631      4.15108         0.001381     -0.000466     -0.000366
      0.68138      2.88358      9.39016        -0.001340     -0.001118     -0.001022
      7.81641      6.18808      3.75705         0.001340      0.001118     -0.001022
      4.93028      1.65225      9.39016        -0.001340      0.001118     -0.001022
      3.56751      7.41941      3.75705         0.001340     -0.001118     -0.001022
      7.04351      4.52400      7.06934         0.000029      0.000347     -0.001215
      1.45428      4.54766      1.43622        -0.000029     -0.000347     -0.001215
      2.79462      0.01183      7.06934         0.000029     -0.000347     -0.001215
      5.70318      9.05983      1.43622        -0.000029      0.000347     -0.001215
      7.73646      2.93881      7.52738         0.000345     -0.000818      0.000044
      0.76133      6.13285      1.89427        -0.000345      0.000818      0.000044
      3.48757      1.59702      7.52738         0.000345      0.000818      0.000044
      5.01022      7.47464      1.89427        -0.000345     -0.000818      0.000044
      0.16132      5.91204      8.38763         0.000455     -0.001496      0.000109
      8.33647      3.15962      2.75451        -0.000455      0.001496      0.000109
      4.41021      7.69545      8.38763         0.000455      0.001496      0.000109
      4.08758      1.37621      2.75451        -0.000455     -0.001496      0.000109
      0.84341      3.88602      9.26470         0.000369      0.000268     -0.000428
      7.65439      5.18565      3.63158        -0.000369     -0.000268     -0.000428
      5.09230      0.64982      9.26470         0.000369     -0.000268     -0.000428
      3.40549      8.42185      3.63158        -0.000369      0.000268     -0.000428
      7.67813      3.95277      7.63872         0.002447     -0.000927      0.002165
      0.81966      5.11889      2.00560        -0.002447      0.000927      0.002165
      3.42923      0.58306      7.63872         0.002447      0.000927      0.002165
      5.06856      8.48860      2.00560        -0.002447     -0.000927      0.002165
 -----------------------------------------------------------------------------------
    total drift:                                0.006264      0.010293      0.004357


--------------------------------------------------------------------------------------------------------



  FREE ENERGIE OF THE ION-ELECTRON SYSTEM (eV)
  ---------------------------------------------------
  free  energy   TOTEN  =      -568.04268550 eV

  energy  without entropy=     -568.04268532  energy(sigma->0) =     -568.04268541
 


--------------------------------------------------------------------------------------------------------


    POTLOK:  cpu time    0.0987: real time    0.0987


--------------------------------------------------------------------------------------------------------


     LOOP+:  cpu time  894.7282: real time  883.4424
    4ORBIT:  cpu time    0.0000: real time    0.0000
 


 total charge     
 
# of ion     s       p       d       tot
----------------------------------------
  1        0.306   0.326   9.085   9.718
  2        0.306   0.326   9.085   9.718
  3        0.306   0.326   9.125   9.757
  4        0.306   0.326   9.125   9.757
  5        1.567   3.563   0.000   5.131
  6        1.567   3.563   0.000   5.130
  7        1.568   3.562   0.000   5.130
  8        1.568   3.563   0.000   5.131
  9        1.574   3.570   0.000   5.144
 10        1.574   3.570   0.000   5.144
 11        1.574   3.565   0.000   5.140
 12        1.574   3.565   0.000   5.140
 13        1.571   3.555   0.000   5.126
 14        1.571   3.556   0.000   5.126
 15        1.571   3.559   0.000   5.129
 16        1.571   3.558   0.000   5.129
 17        1.571   3.560   0.000   5.131
 18        1.571   3.560   0.000   5.131
 19        1.571   3.563   0.000   5.134
 20        1.571   3.563   0.000   5.134
 21        1.568   3.560   0.000   5.128
 22        1.568   3.560   0.000   5.128
 23        1.568   3.560   0.000   5.128
 24        1.568   3.560   0.000   5.128
 25        1.573   3.565   0.000   5.138
 26        1.573   3.565   0.000   5.138
 27        1.574   3.561   0.000   5.134
 28        1.574   3.561   0.000   5.134
 29        0.874   1.707   0.000   2.581
 30        0.874   1.707   0.000   2.581
 31        0.874   1.707   0.000   2.581
 32        0.874   1.707   0.000   2.581
 33        0.877   1.707   0.000   2.585
 34        0.877   1.707   0.000   2.585
 35        0.877   1.707   0.000   2.585
 36        0.877   1.707   0.000   2.585
 37        0.874   1.705   0.000   2.579
 38        0.874   1.705   0.000   2.579
 39        0.874   1.705   0.000   2.579
 40        0.874   1.705   0.000   2.579
 41        0.856   1.758   0.000   2.615
 42        0.856   1.758   0.000   2.615
 43        0.856   1.758   0.000   2.615
 44        0.856   1.758   0.000   2.615
 45        0.639   0.044   0.000   0.683
 46        0.639   0.044   0.000   0.683
 47        0.639   0.044   0.000   0.683
 48        0.639   0.044   0.000   0.683
 49        0.645   0.048   0.000   0.693
 50        0.645   0.048   0.000   0.693
 51        0.645   0.048   0.000   0.693
 52        0.645   0.048   0.000   0.693
 53        0.640   0.045   0.000   0.685
 54        0.640   0.045   0.000   0.685
 55        0.640   0.045   0.000   0.685
 56        0.640   0.045   0.000   0.685
 57        0.597   0.093   0.000   0.690
 58        0.597   0.093   0.000   0.690
 59        0.597   0.093   0.000   0.690
 60        0.597   0.093   0.000   0.690
 61        0.605   0.093   0.000   0.697
 62        0.605   0.093   0.000   0.697
 63        0.605   0.093   0.000   0.697
 64        0.605   0.093   0.000   0.697
 65        0.607   0.092   0.000   0.699
 66        0.607   0.092   0.000   0.699
 67        0.607   0.092   0.000   0.699
 68        0.607   0.092   0.000   0.699
 69        0.609   0.094   0.000   0.703
 70        0.609   0.094   0.000   0.703
 71        0.609   0.094   0.000   0.703
 72        0.609   0.094   0.000   0.703
 73        0.602   0.093   0.000   0.696
 74        0.602   0.093   0.000   0.696
 75        0.602   0.093   0.000   0.696
 76        0.602   0.093   0.000   0.696
 77        0.611   0.092   0.000   0.703
 78        0.611   0.092   0.000   0.703
 79        0.611   0.092   0.000   0.703
 80        0.611   0.092   0.000   0.703
 81        1.212   2.811   0.000   4.024
 82        1.212   2.811   0.000   4.024
 83        1.212   2.811   0.000   4.024
 84        1.212   2.812   0.000   4.024
 85        1.209   2.808   0.000   4.017
 86        1.209   2.808   0.000   4.017
 87        1.209   2.808   0.000   4.017
 88        1.209   2.808   0.000   4.017
 89        1.208   2.806   0.000   4.014
 90        1.208   2.806   0.000   4.014
 91        1.208   2.806   0.000   4.014
 92        1.208   2.806   0.000   4.014
------------------------------------------------
tot       89.587 150.781  36.420 276.788
 


 magnetization (x)
 
# of ion     s       p       d       tot
----------------------------------------
  1       -0.003  -0.003   0.615   0.609
  2        0.003   0.003  -0.616  -0.609
  3       -0.003  -0.002   0.578   0.572
  4        0.003   0.002  -0.578  -0.572
  5        0.004   0.069   0.000   0.073
  6       -0.004  -0.069   0.000  -0.073
  7        0.004   0.069   0.000   0.073
  8       -0.004  -0.069   0.000  -0.073
  9        0.000   0.016   0.000   0.017
 10       -0.000  -0.016   0.000  -0.017
 11        0.000   0.020   0.000   0.020
 12       -0.000  -0.020   0.000  -0.020
 13        0.004   0.061   0.000   0.065
 14       -0.004  -0.061   0.000  -0.065
 15        0.004   0.059   0.000   0.063
 16       -0.004  -0.060   0.000  -0.064
 17       -0.004  -0.054   0.000  -0.058
 18        0.004   0.054   0.000   0.058
 19       -0.004  -0.052   0.000  -0.056
 20        0.004   0.052   0.000   0.056
 21        0.004   0.072   0.000   0.076
 22       -0.004  -0.072   0.000  -0.076
 23        0.004   0.072   0.000   0.075
 24       -0.004  -0.072   0.000  -0.075
 25        0.000   0.012   0.000   0.012
 26       -0.000  -0.012   0.000  -0.012
 27       -0.000   0.016   0.000   0.016
 28        0.000  -0.016   0.000  -0.016
 29       -0.000  -0.002   0.000  -0.002
 30        0.000   0.002   0.000   0.002
 31       -0.000  -0.002   0.000  -0.002
 32        0.000   0.002   0.000   0.002
 33       -0.000  -0.001   0.000  -0.001
 34        0.000   0.001   0.000   0.001
 35       -0.000  -0.001   0.000  -0.001
 36        0.000   0.001   0.000   0.001
 37       -0.000  -0.002   0.000  -0.003
 38        0.000   0.002   0.000   0.003
 39       -0.000  -0.002   0.000  -0.003
 40        0.000   0.002   0.000   0.003
 41       -0.000  -0.000   0.000  -0.000
 42        0.000   0.000   0.000   0.000
 43       -0.000  -0.000   0.000  -0.000
 44        0.000   0.000   0.000   0.000
 45        0.000  -0.000   0.000   0.000
 46       -0.000   0.000   0.000  -0.000
 47        0.000  -0.000   0.000   0.000
 48       -0.000   0.000   0.000  -0.000
 49        0.000  -0.000   0.000   0.000
 50       -0.000   0.000   0.000  -0.000
 51        0.000  -0.000   0.000   0.000
 52       -0.000   0.000   0.000  -0.000
 53        0.001  -0.000   0.000   0.001
 54       -0.001   0.000   0.000  -0.001
 55        0.000  -0.000   0.000   0.000
 56       -0.000   0.000   0.000  -0.000
 57        0.000   0.000   0.000   0.000
 58       -0.000  -0.000   0.000  -0.000
 59        0.000   0.000   0.000   0.000
 60       -0.000  -0.000   0.000  -0.000
 61       -0.000   0.000   0.000   0.000
 62        0.000  -0.000   0.000  -0.000
 63       -0.000   0.000   0.000   0.000
 64        0.000  -0.000   0.000  -0.000
 65       -0.000  -0.000   0.000  -0.000
 66        0.000   0.000   0.000   0.000
 67       -0.000  -0.000   0.000  -0.000
 68        0.000   0.000   0.000   0.000
 69        0.000  -0.000   0.000  -0.000
 70       -0.000   0.000   0.000   0.000
 71        0.000  -0.000   0.000  -0.000
 72       -0.000   0.000   0.000   0.000
 73        0.000  -0.000   0.000   0.000
 74       -0.000   0.000   0.000  -0.000
 75        0.000  -0.000   0.000   0.000
 76       -0.000   0.000   0.000  -0.000
 77       -0.000   0.000   0.000   0.000
 78        0.000  -0.000   0.000  -0.000
 79       -0.000   0.000   0.000   0.000
 80        0.000  -0.000   0.000  -0.000
 81        0.000   0.001   0.000   0.001
 82       -0.000  -0.001   0.000  -0.001
 83        0.000   0.001   0.000   0.001
 84       -0.000  -0.001   0.000  -0.001
 85       -0.000  -0.001   0.000  -0.001
 86        0.000   0.001   0.000   0.001
 87       -0.000  -0.001   0.000  -0.001
 88        0.000   0.001   0.000   0.001
 89        0.000   0.000   0.000   0.001
 90       -0.000  -0.000   0.000  -0.001
 91        0.000   0.000   0.000   0.000
 92       -0.000  -0.000   0.000  -0.001
------------------------------------------------
tot       -0.000   0.000  -0.000   0.000
 

 total amount of memory used by VASP on root node   401674. kBytes
========================================================================

   base      :      30000. kBytes
   nonl-proj :     264517. kBytes
   fftplans  :       3571. kBytes
   grid      :      53048. kBytes
   one-center:       2861. kBytes
   wavefun   :      47677. kBytes
 
  
  
 General timing and accounting informations for this job:
 ========================================================
  
                  Total CPU time used (sec):      918.893
                            User time (sec):      906.802
                          System time (sec):       12.092
                         Elapsed time (sec):      907.941
  
                   Maximum memory used (kb):      631140.
                   Average memory used (kb):           0.
  
                          Minor page faults:       964925
                          Major page faults:            0
                 Voluntary context switches:       867800
