 vasp.5.4.1 24Jun15 (build Aug 03 2015 13:31:17) complex                        
  
 executed on      LinuxIFC_2015xe date 2021.12.03  08:58:38
 running on   48 total cores
 distrk:  each k-point on   48 cores,    1 groups
 distr:  one band on NCORES_PER_BAND=   1 cores,   48 groups


--------------------------------------------------------------------------------------------------------


 INCAR:
 POTCAR:    PAW_PBE Zn 06Sep2000                  
 POTCAR:   PAW_PBE O 08Apr2002                    
 POTCAR:   PAW_PBE C 08Apr2002                    
 POTCAR:   PAW_PBE H 15Jun2001                    
 POTCAR:   PAW_PBE N 08Apr2002                    

 ----------------------------------------------------------------------------- 
|                                                                             |
|           W    W    AA    RRRRR   N    N  II  N    N   GGGG   !!!           |
|           W    W   A  A   R    R  NN   N  II  NN   N  G    G  !!!           |
|           W    W  A    A  R    R  N N  N  II  N N  N  G       !!!           |
|           W WW W  AAAAAA  RRRRR   N  N N  II  N  N N  G  GGG   !            |
|           WW  WW  A    A  R   R   N   NN  II  N   NN  G    G                |
|           W    W  A    A  R    R  N    N  II  N    N   GGGG   !!!           |
|                                                                             |
|      For optimal performance we recommend to set                            |
|        NCORE= 4 - approx SQRT( number of cores)                             |
|      NCORE specifies how many cores store one orbital (NPAR=cpu/NCORE).     |
|      This setting can  greatly improve the performance of VASP for DFT.     |
|      The default, NPAR=number of cores might be grossly inefficient         |
|      on modern multi-core architectures or massively parallel machines.     |
|      Do your own testing !!!!                                               |
|      Unfortunately you need to use the default for GW and RPA calculations. |
|      (for HF NCORE is supported but not extensively tested yet)             |
|                                                                             |
 ----------------------------------------------------------------------------- 

 POTCAR:    PAW_PBE Zn 06Sep2000                  
   VRHFIN =Zn: d10 p2                                                           
   LEXCH  = PE                                                                  
   EATOM  =  1748.8345 eV,  128.5357 Ry                                         
                                                                                
   TITEL  = PAW_PBE Zn 06Sep2000                                                
   LULTRA =        F    use ultrasoft PP ?                                      
   IUNSCR =        1    unscreen: 0-lin 1-nonlin 2-no                           
   RPACOR =    2.000    partial core radius                                     
   POMASS =   65.390; ZVAL   =   12.000    mass and valenz                      
   RCORE  =    2.300    outmost cutoff radius                                   
   RWIGS  =    2.400; RWIGS  =    1.270    wigner-seitz radius (au A)           
   ENMAX  =  276.723; ENMIN  =  207.542 eV                                      
   RCLOC  =    1.828    cutoff for local pot                                    
   LCOR   =        T    correct aug charges                                     
   LPAW   =        T    paw PP                                                  
   EAUG   =  575.892                                                            
   DEXC   =    0.000                                                            
   RMAX   =    2.347    core radius for proj-oper                               
   RAUG   =    1.300    factor for augmentation sphere                          
   RDEP   =    2.324    radius for radial grids                                 
   RDEPT  =    1.788    core radius for aug-charge                              
                                                                                
   Atomic configuration                                                         
    9 entries                                                                   
     n  l   j            E        occ.                                          
     1  0  0.50     -9524.6913   2.0000                                         
     2  0  0.50     -1158.1882   2.0000                                         
     2  1  1.50     -1003.8506   6.0000                                         
     3  0  0.50      -129.2194   2.0000                                         
     3  1  1.50       -83.3890   6.0000                                         
     3  2  2.50       -10.1410  10.0000                                         
     4  0  0.50        -5.9785   2.0000                                         
     4  1  0.50        -4.0817   0.0000                                         
     4  3  2.50        -1.3606   0.0000                                         
   Description                                                                  
     l       E           TYP  RCUT    TYP  RCUT                                 
     2    -10.1410010     23  2.300                                             
     2    -11.5015836     23  2.300                                             
     0     -5.9785163     23  2.300                                             
     0      1.1858015     23  2.300                                             
     1     -2.7211652     23  2.300                                             
     1     13.2444212     23  2.300                                             
  local pseudopotential read in
  partial core-charges read in
  partial kinetic energy density read in
  atomic valenz-charges read in
  non local Contribution for L=           2  read in
    real space projection operators read in
  non local Contribution for L=           2  read in
    real space projection operators read in
  non local Contribution for L=           0  read in
    real space projection operators read in
  non local Contribution for L=           0  read in
    real space projection operators read in
  non local Contribution for L=           1  read in
    real space projection operators read in
  non local Contribution for L=           1  read in
    real space projection operators read in
    PAW grid and wavefunctions read in
 
   number of l-projection  operators is LMAX  =           6
   number of lm-projection operators is LMMAX =          18
 
 POTCAR:   PAW_PBE O 08Apr2002                    
   VRHFIN =O: s2p4                                                              
   LEXCH  = PE                                                                  
   EATOM  =   432.3788 eV,   31.7789 Ry                                         
                                                                                
   TITEL  = PAW_PBE O 08Apr2002                                                 
   LULTRA =        F    use ultrasoft PP ?                                      
   IUNSCR =        0    unscreen: 0-lin 1-nonlin 2-no                           
   RPACOR =     .000    partial core radius                                     
   POMASS =   16.000; ZVAL   =    6.000    mass and valenz                      
   RCORE  =    1.520    outmost cutoff radius                                   
   RWIGS  =    1.550; RWIGS  =     .820    wigner-seitz radius (au A)           
   ENMAX  =  400.000; ENMIN  =  300.000 eV                                      
   ICORE  =        2    local potential                                         
   LCOR   =        T    correct aug charges                                     
   LPAW   =        T    paw PP                                                  
   EAUG   =  605.392                                                            
   DEXC   =     .000                                                            
   RMAX   =    2.264    core radius for proj-oper                               
   RAUG   =    1.300    factor for augmentation sphere                          
   RDEP   =    1.550    radius for radial grids                                 
   QCUT   =   -5.520; QGAM   =   11.041    optimization parameters              
                                                                                
   Description                                                                  
     l     E      TYP  RCUT    TYP  RCUT                                        
     0   .000     23  1.200                                                     
     0  -.700     23  1.200                                                     
     1   .000     23  1.520                                                     
     1   .600     23  1.520                                                     
     2   .000      7  1.500                                                     
  local pseudopotential read in
  atomic valenz-charges read in
  non local Contribution for L=           0  read in
    real space projection operators read in
  non local Contribution for L=           0  read in
    real space projection operators read in
  non local Contribution for L=           1  read in
    real space projection operators read in
  non local Contribution for L=           1  read in
    real space projection operators read in
    PAW grid and wavefunctions read in
 
   number of l-projection  operators is LMAX  =           4
   number of lm-projection operators is LMMAX =           8
 
 POTCAR:   PAW_PBE C 08Apr2002                    
   VRHFIN =C: s2p2                                                              
   LEXCH  = PE                                                                  
   EATOM  =   147.1560 eV,   10.8157 Ry                                         
                                                                                
   TITEL  = PAW_PBE C 08Apr2002                                                 
   LULTRA =        F    use ultrasoft PP ?                                      
   IUNSCR =        0    unscreen: 0-lin 1-nonlin 2-no                           
   RPACOR =     .000    partial core radius                                     
   POMASS =   12.011; ZVAL   =    4.000    mass and valenz                      
   RCORE  =    1.500    outmost cutoff radius                                   
   RWIGS  =    1.630; RWIGS  =     .863    wigner-seitz radius (au A)           
   ENMAX  =  400.000; ENMIN  =  300.000 eV                                      
   ICORE  =        2    local potential                                         
   LCOR   =        T    correct aug charges                                     
   LPAW   =        T    paw PP                                                  
   EAUG   =  644.873                                                            
   DEXC   =     .000                                                            
   RMAX   =    2.266    core radius for proj-oper                               
   RAUG   =    1.300    factor for augmentation sphere                          
   RDEP   =    1.501    radius for radial grids                                 
   RDEPT  =    1.300    core radius for aug-charge                              
   QCUT   =   -5.516; QGAM   =   11.032    optimization parameters              
                                                                                
   Description                                                                  
     l     E      TYP  RCUT    TYP  RCUT                                        
     0   .000     23  1.200                                                     
     0   .000     23  1.200                                                     
     1   .000     23  1.500                                                     
     1  2.500     23  1.500                                                     
     2   .000      7  1.500                                                     
  local pseudopotential read in
  atomic valenz-charges read in
  non local Contribution for L=           0  read in
    real space projection operators read in
  non local Contribution for L=           0  read in
    real space projection operators read in
  non local Contribution for L=           1  read in
    real space projection operators read in
  non local Contribution for L=           1  read in
    real space projection operators read in
    PAW grid and wavefunctions read in
 
   number of l-projection  operators is LMAX  =           4
   number of lm-projection operators is LMMAX =           8
 
 POTCAR:   PAW_PBE H 15Jun2001                    
   VRHFIN =H: ultrasoft test                                                    
   LEXCH  = PE                                                                  
   EATOM  =    12.4884 eV,     .9179 Ry                                         
                                                                                
   TITEL  = PAW_PBE H 15Jun2001                                                 
   LULTRA =        F    use ultrasoft PP ?                                      
   IUNSCR =        0    unscreen: 0-lin 1-nonlin 2-no                           
   RPACOR =     .000    partial core radius                                     
   POMASS =    1.000; ZVAL   =    1.000    mass and valenz                      
   RCORE  =    1.100    outmost cutoff radius                                   
   RWIGS  =     .700; RWIGS  =     .370    wigner-seitz radius (au A)           
   ENMAX  =  250.000; ENMIN  =  200.000 eV                                      
   RCLOC  =     .701    cutoff for local pot                                    
   LCOR   =        T    correct aug charges                                     
   LPAW   =        T    paw PP                                                  
   EAUG   =  400.000                                                            
   RMAX   =    2.174    core radius for proj-oper                               
   RAUG   =    1.200    factor for augmentation sphere                          
   RDEP   =    1.112    radius for radial grids                                 
   QCUT   =   -5.749; QGAM   =   11.498    optimization parameters              
                                                                                
   Description                                                                  
     l     E      TYP  RCUT    TYP  RCUT                                        
     0   .000     23  1.100                                                     
     0   .500     23  1.100                                                     
     1  -.300     23  1.100                                                     
  local pseudopotential read in
  atomic valenz-charges read in
  non local Contribution for L=           0  read in
    real space projection operators read in
  non local Contribution for L=           0  read in
    real space projection operators read in
  non local Contribution for L=           1  read in
    real space projection operators read in
    PAW grid and wavefunctions read in
 
   number of l-projection  operators is LMAX  =           3
   number of lm-projection operators is LMMAX =           5
 
 POTCAR:   PAW_PBE N 08Apr2002                    
   VRHFIN =N: s2p3                                                              
   LEXCH  = PE                                                                  
   EATOM  =   264.5486 eV,   19.4438 Ry                                         
                                                                                
   TITEL  = PAW_PBE N 08Apr2002                                                 
   LULTRA =        F    use ultrasoft PP ?                                      
   IUNSCR =        0    unscreen: 0-lin 1-nonlin 2-no                           
   RPACOR =     .000    partial core radius                                     
   POMASS =   14.001; ZVAL   =    5.000    mass and valenz                      
   RCORE  =    1.500    outmost cutoff radius                                   
   RWIGS  =    1.400; RWIGS  =     .741    wigner-seitz radius (au A)           
   ENMAX  =  400.000; ENMIN  =  300.000 eV                                      
   ICORE  =        2    local potential                                         
   LCOR   =        T    correct aug charges                                     
   LPAW   =        T    paw PP                                                  
   EAUG   =  627.112                                                            
   DEXC   =     .000                                                            
   RMAX   =    2.247    core radius for proj-oper                               
   RAUG   =    1.300    factor for augmentation sphere                          
   RDEP   =    1.514    radius for radial grids                                 
   QCUT   =   -5.562; QGAM   =   11.124    optimization parameters              
                                                                                
   Description                                                                  
     l     E      TYP  RCUT    TYP  RCUT                                        
     0   .000     23  1.200                                                     
     0   .000     23  1.200                                                     
     1   .000     23  1.500                                                     
     1   .700     23  1.500                                                     
     2   .000      7  1.500                                                     
  local pseudopotential read in
  atomic valenz-charges read in
  non local Contribution for L=           0  read in
    real space projection operators read in
  non local Contribution for L=           0  read in
    real space projection operators read in
  non local Contribution for L=           1  read in
    real space projection operators read in
  non local Contribution for L=           1  read in
    real space projection operators read in
    PAW grid and wavefunctions read in
 
   number of l-projection  operators is LMAX  =           4
   number of lm-projection operators is LMMAX =           8
 

 ----------------------------------------------------------------------------- 
|                                                                             |
|  ADVICE TO THIS USER RUNNING 'VASP/VAMP'   (HEAR YOUR MASTER'S VOICE ...):  |
|                                                                             |
|      You have a (more or less) 'large supercell' and for larger cells       |
|      it might be more efficient to use real space projection opertators     |
|      So try LREAL= Auto  in the INCAR   file.                               |
|      Mind: At the moment your POTCAR file does not contain real space       |
|       projectors, and has to be modified,  BUT if you                       |
|      want to do an extremely  accurate calculation you might also keep the  |
|      reciprocal projection scheme          (i.e. LREAL=.FALSE.)             |
|                                                                             |
 ----------------------------------------------------------------------------- 

  PAW_PBE Zn 06Sep2000                  :
 energy of atom  1       EATOM=-1748.8345
 kinetic energy error for atom=    0.0007 (will be added to EATOM!!)
 PAW_PBE O 08Apr2002                    :
 energy of atom  2       EATOM= -432.3788
 kinetic energy error for atom=    0.0091 (will be added to EATOM!!)
 PAW_PBE C 08Apr2002                    :
 energy of atom  3       EATOM= -147.1560
 kinetic energy error for atom=    0.0032 (will be added to EATOM!!)
 PAW_PBE H 15Jun2001                    :
 energy of atom  4       EATOM=  -12.4884
 kinetic energy error for atom=    0.0002 (will be added to EATOM!!)
 PAW_PBE N 08Apr2002                    :
 energy of atom  5       EATOM= -264.5486
 kinetic energy error for atom=    0.0061 (will be added to EATOM!!)
 
 
 POSCAR: C3 H8 Mn N2 O6                          
  positions in direct lattice
  velocities in cartesian coordinates
 exchange correlation table for  LEXCH =        8
   RHO(1)=    0.500       N(1)  =     2000
   RHO(2)=  100.500       N(2)  =     4000
 


--------------------------------------------------------------------------------------------------------


 ion  position               nearest neighbor table
   1  0.000  0.253  0.000-  10 2.10  13 2.11   5 2.12  18 2.13  28 2.16  21 2.17
   2  0.000  0.747  0.500-   9 2.10  14 2.11   6 2.12  17 2.13  27 2.16  22 2.17
   3  0.500  0.753  0.000-  12 2.10  15 2.11   7 2.12  20 2.13  26 2.16  23 2.17
   4  0.500  0.247  0.500-  11 2.10  16 2.11   8 2.12  19 2.13  25 2.16  24 2.17
   5  0.156  0.143  0.163-  33 1.26   1 2.12
   6  0.156  0.857  0.663-  34 1.26   2 2.12
   7  0.656  0.643  0.163-  35 1.26   3 2.12
   8  0.656  0.357  0.663-  36 1.26   4 2.12
   9  0.048  0.522  0.632-  37 1.27   2 2.10
  10  0.048  0.478  0.132-  38 1.27   1 2.10
  11  0.548  0.022  0.632-  39 1.27   4 2.10
  12  0.548  0.978  0.132-  40 1.27   3 2.10
  13  0.047  0.332  0.816-  37 1.27   1 2.11
  14  0.047  0.668  0.316-  38 1.27   2 2.11
  15  0.547  0.832  0.816-  39 1.27   3 2.11
  16  0.547  0.168  0.316-  40 1.27   4 2.11
  17  0.942  0.968  0.354-  41 1.26   2 2.13
  18  0.942  0.032  0.854-  42 1.26   1 2.13
  19  0.442  0.468  0.354-  43 1.26   4 2.13
  20  0.442  0.532  0.854-  44 1.26   3 2.13
  21  0.947  0.164  0.179-  41 1.28   1 2.17
  22  0.947  0.836  0.679-  42 1.28   2 2.17
  23  0.447  0.664  0.179-  43 1.28   3 2.17
  24  0.447  0.336  0.679-  44 1.28   4 2.17
  25  0.339  0.139  0.337-  33 1.28   4 2.16
  26  0.339  0.861  0.837-  34 1.28   3 2.16
  27  0.839  0.639  0.337-  35 1.28   2 2.16
  28  0.839  0.361  0.837-  36 1.28   1 2.16
  29  0.694  0.279  0.094-  53 1.09  57 1.09  49 1.09  93 1.48
  30  0.694  0.721  0.594-  54 1.09  58 1.09  50 1.09  94 1.48
  31  0.194  0.779  0.094-  59 1.09  55 1.09  51 1.09  95 1.48
  32  0.194  0.221  0.594-  60 1.09  56 1.09  52 1.09  96 1.48
  33  0.248  0.215  0.250-  61 1.11   5 1.26  25 1.28
  34  0.248  0.785  0.750-  62 1.11   6 1.26  26 1.28
  35  0.748  0.715  0.250-  63 1.11   7 1.26  27 1.28
  36  0.748  0.285  0.750-  64 1.11   8 1.26  28 1.28
  37  0.034  0.477  0.759-  65 1.11   9 1.27  13 1.27
  38  0.034  0.523  0.259-  66 1.11  10 1.27  14 1.27
  39  0.534  0.977  0.759-  67 1.11  11 1.27  15 1.27
  40  0.534  0.023  0.259-  68 1.11  12 1.27  16 1.27
  41  0.977  0.026  0.257-  69 1.10  17 1.26  21 1.28
  42  0.977  0.974  0.757-  70 1.10  18 1.26  22 1.28
  43  0.477  0.526  0.257-  71 1.10  19 1.26  23 1.28
  44  0.477  0.474  0.757-  72 1.10  20 1.26  24 1.28
  45  0.804  0.237  0.423-  81 1.09  89 1.09  85 1.09  93 1.48
  46  0.804  0.763  0.923-  82 1.09  90 1.09  86 1.09  94 1.48
  47  0.304  0.737  0.423-  83 1.09  91 1.09  87 1.09  95 1.48
  48  0.304  0.263  0.923-  84 1.09  92 1.09  88 1.09  96 1.48
  49  0.686  0.148  0.066-  29 1.09
  50  0.686  0.852  0.566-  30 1.09
  51  0.186  0.648  0.066-  31 1.09
  52  0.186  0.352  0.566-  32 1.09
  53  0.693  0.346  0.984-  29 1.09
  54  0.693  0.654  0.484-  30 1.09
  55  0.193  0.846  0.984-  31 1.09
  56  0.193  0.154  0.484-  32 1.09
  57  0.626  0.319  0.111-  29 1.09
  58  0.626  0.681  0.611-  30 1.09
  59  0.126  0.819  0.111-  31 1.09
  60  0.126  0.181  0.611-  32 1.09
  61  0.250  0.349  0.251-  33 1.11
  62  0.250  0.651  0.751-  34 1.11
  63  0.750  0.849  0.251-  35 1.11
  64  0.750  0.151  0.751-  36 1.11
  65  0.011  0.569  0.826-  37 1.11
  66  0.011  0.431  0.326-  38 1.11
  67  0.511  0.069  0.826-  39 1.11
  68  0.511  0.931  0.326-  40 1.11
  69  0.036  0.955  0.237-  41 1.10
  70  0.036  0.045  0.737-  42 1.10
  71  0.536  0.455  0.237-  43 1.10
  72  0.536  0.545  0.737-  44 1.10
  73  0.863  0.258  0.245-  93 1.06
  74  0.863  0.742  0.745-  94 1.06
  75  0.363  0.758  0.245-  95 1.06
  76  0.363  0.242  0.745-  96 1.06
  77  0.814  0.435  0.285-  93 1.06
  78  0.814  0.565  0.785-  94 1.06
  79  0.314  0.935  0.285-  95 1.06
  80  0.314  0.065  0.785-  96 1.06
  81  0.884  0.265  0.542-  45 1.09
  82  0.884  0.735  0.042-  46 1.09
  83  0.384  0.765  0.542-  47 1.09
  84  0.384  0.235  0.042-  48 1.09
  85  0.794  0.105  0.406-  45 1.09
  86  0.794  0.895  0.906-  46 1.09
  87  0.294  0.605  0.406-  47 1.09
  88  0.294  0.395  0.906-  48 1.09
  89  0.737  0.288  0.435-  45 1.09
  90  0.737  0.712  0.935-  46 1.09
  91  0.237  0.788  0.435-  47 1.09
  92  0.237  0.212  0.935-  48 1.09
  93  0.800  0.309  0.262-  77 1.06  73 1.06  29 1.48  45 1.48
  94  0.800  0.691  0.762-  78 1.06  74 1.06  30 1.48  46 1.48
  95  0.300  0.809  0.262-  79 1.06  75 1.06  31 1.48  47 1.48
  96  0.300  0.191  0.762-  80 1.06  76 1.06  32 1.48  48 1.48
 
  LATTYP: Found a simple monoclinic cell.
 ALAT       =    15.7770054054
 B/A-ratio  =     0.5224389703
 C/A-ratio  =     1.4139076663
 COS(beta)  =    -0.9544913423
  
  Lattice vectors:
  
 A1 = (  -5.2437598972,   0.0000000000, -14.8800833904)
 A2 = (   0.0000000000,  -8.2425224579,   0.0000000000)
 A3 = (   0.8021208644,   0.0000000000,  22.2928029430)


Analysis of symmetry for initial positions (statically):
=====================================================================
 Subroutine PRICEL returns following result:
 
  LATTYP: Found a base centered monoclinic cell.
 ALAT       =    14.1271408093
 B/A-ratio  =     0.5834529838
 C/A-ratio  =     1.7676778796
 COS(beta)  =    -0.8246190605
  
  Lattice vectors:
  
 A1 = (   7.0635175630,   4.1212624678,   0.0273221371)
 A2 = (   7.0635175630,  -4.1212599901,   0.0273221371)
 A3 = ( -23.8124312191,  -0.0000049554,  -7.5220081011)
 
   2 primitive cells build up your supercell.
 

 Routine SETGRP: Setting up the symmetry group for a 
 simple monoclinic supercell.


 Subroutine GETGRP returns: Found  2 space group operations
 (whereof  1 operations were pure point group operations)
 out of a pool of  4 trial point group operations.


The static configuration has the point symmetry C_1 .
 The point group associated with its full space group is C_1h.


Analysis of symmetry for dynamics (positions and initial velocities):
=====================================================================
 Subroutine PRICEL returns following result:
 
  LATTYP: Found a base centered monoclinic cell.
 ALAT       =    14.1271408093
 B/A-ratio  =     0.5834529838
 C/A-ratio  =     1.7676778796
 COS(beta)  =    -0.8246190605
  
  Lattice vectors:
  
 A1 = (   7.0635175630,   4.1212624678,   0.0273221371)
 A2 = (   7.0635175630,  -4.1212599901,   0.0273221371)
 A3 = ( -23.8124312191,  -0.0000049554,  -7.5220081011)
 
   2 primitive cells build up your supercell.
 

 Routine SETGRP: Setting up the symmetry group for a 
 simple monoclinic supercell.


 Subroutine GETGRP returns: Found  2 space group operations
 (whereof  1 operations were pure point group operations)
 out of a pool of  4 trial point group operations.


The dynamic configuration has the point symmetry C_1 .
 The point group associated with its full space group is C_1h.


Analysis of magnetic symmetry:
=====================================================================
 Subroutine PRICEL returns following result:
 
  LATTYP: Found a base centered monoclinic cell.
 ALAT       =    14.1271408093
 B/A-ratio  =     0.5834529838
 C/A-ratio  =     1.7676778796
 COS(beta)  =    -0.8246190605
  
  Lattice vectors:
  
 A1 = (   7.0635175630,   4.1212624678,   0.0273221371)
 A2 = (   7.0635175630,  -4.1212599901,   0.0273221371)
 A3 = ( -23.8124312191,  -0.0000049554,  -7.5220081011)
 
   2 primitive cells build up your supercell.
 

 Subroutine MAGSYM returns: Found  2 space group operations
 (whereof  1 operations were pure point group operations)
 out of a pool of  2 trial space group operations
 (whereof  1 operations were pure point group operations)
 and found also     2 'primitive' translations


The magnetic configuration has the point symmetry C_1 .
 The point group associated with its full space group is C_1h.
 
 
 KPOINTS: Automatic mesh                          

Automatic generation of k-mesh.
Space group operators:
 irot       det(A)        alpha          n_x          n_y          n_z        tau_x        tau_y        tau_z
    1     1.000000     0.000000     1.000000     0.000000     0.000000     0.000000     0.000000     0.000000
    2    -1.000000   180.000000     0.000000     1.000000     0.000000    -1.000000    -0.000000    -0.500000
 
 Subroutine IBZKPT returns following result:
 ===========================================
 
 Found     12 irreducible k-points:
 
 Following reciprocal coordinates:
            Coordinates               Weight
  0.000000  0.125000  0.125000      4.000000
  0.333333  0.125000  0.125000      4.000000
 -0.333333  0.125000  0.125000      4.000000
  0.000000  0.375000  0.125000      4.000000
  0.333333  0.375000  0.125000      4.000000
 -0.333333  0.375000  0.125000      4.000000
  0.000000  0.125000  0.375000      4.000000
  0.333333  0.125000  0.375000      4.000000
 -0.333333  0.125000  0.375000      4.000000
  0.000000  0.375000  0.375000      4.000000
  0.333333  0.375000  0.375000      4.000000
 -0.333333  0.375000  0.375000      4.000000
 
 Following cartesian coordinates:
            Coordinates               Weight
 -0.000065  0.015165  0.016824      4.000000
  0.023476  0.015165  0.030929      4.000000
 -0.023606  0.015165  0.002718      4.000000
 -0.000065  0.045496  0.016824      4.000000
  0.023476  0.045496  0.030929      4.000000
 -0.023606  0.045496  0.002718      4.000000
 -0.000195  0.015165  0.050472      4.000000
  0.023346  0.015165  0.064577      4.000000
 -0.023736  0.015165  0.036366      4.000000
 -0.000195  0.045496  0.050472      4.000000
  0.023346  0.045496  0.064577      4.000000
 -0.023736  0.045496  0.036366      4.000000
 
 
 Subroutine IBZKPT_HF returns following result:
 ==============================================
 
 Found     48 k-points in 1st BZ
 the following     48 k-points will be used (e.g. in the exchange kernel)
 Following reciprocal coordinates:   # in IRBZ
  0.000000  0.125000  0.125000    0.02083333   1 t-inv F
  0.333333  0.125000  0.125000    0.02083333   2 t-inv F
 -0.333333  0.125000  0.125000    0.02083333   3 t-inv F
  0.000000  0.375000  0.125000    0.02083333   4 t-inv F
  0.333333  0.375000  0.125000    0.02083333   5 t-inv F
 -0.333333  0.375000  0.125000    0.02083333   6 t-inv F
  0.000000  0.125000  0.375000    0.02083333   7 t-inv F
  0.333333  0.125000  0.375000    0.02083333   8 t-inv F
 -0.333333  0.125000  0.375000    0.02083333   9 t-inv F
  0.000000  0.375000  0.375000    0.02083333  10 t-inv F
  0.333333  0.375000  0.375000    0.02083333  11 t-inv F
 -0.333333  0.375000  0.375000    0.02083333  12 t-inv F
  0.000000 -0.125000  0.125000    0.02083333   1 t-inv F
  0.333333 -0.125000  0.125000    0.02083333   2 t-inv F
 -0.333333 -0.125000  0.125000    0.02083333   3 t-inv F
  0.000000 -0.375000  0.125000    0.02083333   4 t-inv F
  0.333333 -0.375000  0.125000    0.02083333   5 t-inv F
 -0.333333 -0.375000  0.125000    0.02083333   6 t-inv F
  0.000000 -0.125000  0.375000    0.02083333   7 t-inv F
  0.333333 -0.125000  0.375000    0.02083333   8 t-inv F
 -0.333333 -0.125000  0.375000    0.02083333   9 t-inv F
  0.000000 -0.375000  0.375000    0.02083333  10 t-inv F
  0.333333 -0.375000  0.375000    0.02083333  11 t-inv F
 -0.333333 -0.375000  0.375000    0.02083333  12 t-inv F
 -0.000000 -0.125000 -0.125000    0.02083333   1 t-inv T
 -0.000000  0.125000 -0.125000    0.02083333   1 t-inv T
 -0.333333 -0.125000 -0.125000    0.02083333   2 t-inv T
 -0.333333  0.125000 -0.125000    0.02083333   2 t-inv T
  0.333333 -0.125000 -0.125000    0.02083333   3 t-inv T
  0.333333  0.125000 -0.125000    0.02083333   3 t-inv T
 -0.000000 -0.375000 -0.125000    0.02083333   4 t-inv T
 -0.000000  0.375000 -0.125000    0.02083333   4 t-inv T
 -0.333333 -0.375000 -0.125000    0.02083333   5 t-inv T
 -0.333333  0.375000 -0.125000    0.02083333   5 t-inv T
  0.333333 -0.375000 -0.125000    0.02083333   6 t-inv T
  0.333333  0.375000 -0.125000    0.02083333   6 t-inv T
 -0.000000 -0.125000 -0.375000    0.02083333   7 t-inv T
 -0.000000  0.125000 -0.375000    0.02083333   7 t-inv T
 -0.333333 -0.125000 -0.375000    0.02083333   8 t-inv T
 -0.333333  0.125000 -0.375000    0.02083333   8 t-inv T
  0.333333 -0.125000 -0.375000    0.02083333   9 t-inv T
  0.333333  0.125000 -0.375000    0.02083333   9 t-inv T
 -0.000000 -0.375000 -0.375000    0.02083333  10 t-inv T
 -0.000000  0.375000 -0.375000    0.02083333  10 t-inv T
 -0.333333 -0.375000 -0.375000    0.02083333  11 t-inv T
 -0.333333  0.375000 -0.375000    0.02083333  11 t-inv T
  0.333333 -0.375000 -0.375000    0.02083333  12 t-inv T
  0.333333  0.375000 -0.375000    0.02083333  12 t-inv T


--------------------------------------------------------------------------------------------------------




 Dimension of arrays:
   k-points           NKPTS =     12   k-points in BZ     NKDIM =     12   number of bands    NBANDS=    288
   number of dos      NEDOS =   6000   number of ions     NIONS =     96
   non local maximal  LDIM  =      6   non local SUM 2l+1 LMDIM =     18
   total plane-waves  NPLWV = 725760
   max r-space proj   IRMAX =      1   max aug-charges    IRDMAX=   6549
   dimension x,y,z NGX =   126 NGY =   72 NGZ =   80
   dimension x,y,z NGXF=   160 NGYF=   96 NGZF=   96
   support grid    NGXF=   160 NGYF=   96 NGZF=   96
   ions per type =               4  24  20  44   4
 NGX,Y,Z   is equivalent  to a cutoff of  14.83, 14.52, 15.39 a.u.
 NGXF,Y,Z  is equivalent  to a cutoff of  18.83, 19.36, 18.47 a.u.


 I would recommend the setting:
   dimension x,y,z NGX =   122 NGY =   71 NGZ =   75
 SYSTEM =  Zn-MOF                                  
 POSCAR =  C3 H8 Mn N2 O6                          

 Startparameter for this run:
   NWRITE =      2    write-flag & timer
   PREC   = high      normal or accurate (medium, high low for compatibility)
   ISTART =      0    job   : 0-new  1-cont  2-samecut
   ICHARG =      1    charge: 1-file 2-atom 10-const
   ISPIN  =      2    spin polarized calculation?
   LNONCOLLINEAR =      F non collinear calculations
   LSORBIT =      F    spin-orbit coupling
   INIWAV =      1    electr: 0-lowe 1-rand  2-diag
   LASPH  =      F    aspherical Exc in radial PAW
   METAGGA=      F    non-selfconsistent MetaGGA calc.

 Electronic Relaxation 1
   ENCUT  =  700.0 eV  51.45 Ry    7.17 a.u.  30.48 17.78 18.64*2*pi/ulx,y,z
   ENINI  =  700.0     initial cutoff
   ENAUG  =  644.9 eV  augmentation charge cutoff
   NELM   =   2000;   NELMIN=  2; NELMDL= -3     # of ELM steps 
   EDIFF  = 0.1E-05   stopping-criterion for ELM
   LREAL  =      F    real-space projection
   NLSPLINE    = F    spline interpolate recip. space projectors
   LCOMPAT=      F    compatible to vasp.4.4
   GGA_COMPAT  = T    GGA compatible to vasp.4.4-vasp.4.6
   LMAXPAW     = -100 max onsite density
   LMAXMIX     =    2 max onsite mixed and CHGCAR
   VOSKOWN=      0    Vosko Wilk Nusair interpolation
   ROPT   =    0.00000   0.00000   0.00000   0.00000
   ROPT   =    0.00000
 Ionic relaxation
   EDIFFG = 0.1E-04   stopping-criterion for IOM
   NSW    =      0    number of steps for IOM
   NBLOCK =      1;   KBLOCK =      1    inner block; outer block 
   IBRION =     -1    ionic relax: 0-MD 1-quasi-New 2-CG
   NFREE  =      0    steps in history (QN), initial steepest desc. (CG)
   ISIF   =      2    stress and relaxation
   IWAVPR =     10    prediction:  0-non 1-charg 2-wave 3-comb
   ISYM   =      2    0-nonsym 1-usesym 2-fastsym
   LCORR  =      T    Harris-Foulkes like correction to forces

   POTIM  = 0.5000    time-step for ionic-motion
   TEIN   =    0.0    initial temperature
   TEBEG  =    0.0;   TEEND  =   0.0 temperature during run
   SMASS  =  -3.00    Nose mass-parameter (am)
   estimated Nose-frequenzy (Omega)   =  0.10E-29 period in steps =****** mass=  -0.456E-26a.u.
   SCALEE = 1.0000    scale energy and forces
   NPACO  =    256;   APACO  = 16.0  distance and # of slots for P.C.
   PSTRESS=    0.0 pullay stress

  Mass of Ions in am
   POMASS =  65.39 16.00 12.01  1.00 14.00
  Ionic Valenz
   ZVAL   =  12.00  6.00  4.00  1.00  5.00
  Atomic Wigner-Seitz radii
   RWIGS  =  -1.00 -1.00 -1.00 -1.00 -1.00
  virtual crystal weights 
   VCA    =   1.00  1.00  1.00  1.00  1.00
   NELECT =     336.0000    total number of electrons
   NUPDOWN=      -1.0000    fix difference up-down

 DOS related values:
   EMIN   =  10.00;   EMAX   =-10.00  energy-range for DOS
   EFERMI =   0.00
   ISMEAR =     0;   SIGMA  =   0.10  broadening in eV -4-tet -1-fermi 0-gaus

 Electronic relaxation 2 (details)
   IALGO  =     38    algorithm
   LDIAG  =      T    sub-space diagonalisation (order eigenvalues)
   LSUBROT=      F    optimize rotation matrix (better conditioning)
   TURBO    =      0    0=normal 1=particle mesh
   IRESTART =      0    0=no restart 2=restart with 2 vectors
   NREBOOT  =      0    no. of reboots
   NMIN     =      0    reboot dimension
   EREF     =   0.00    reference energy to select bands
   IMIX   =      4    mixing-type and parameters
     AMIX     =   0.40;   BMIX     =  1.00
     AMIX_MAG =   1.60;   BMIX_MAG =  1.00
     AMIN     =   0.10
     WC   =   100.;   INIMIX=   1;  MIXPRE=   1;  MAXMIX= -45

 Intra band minimization:
   WEIMIN = 0.0000     energy-eigenvalue tresh-hold
   EBREAK =  0.87E-09  absolut break condition
   DEPER  =   0.30     relativ break condition  

   TIME   =   0.40     timestep for ELM

  volume/ion in A,a.u.               =       9.01        60.82
  Fermi-wavevector in a.u.,A,eV,Ry     =   1.194418  2.257124 19.410555  1.426636
  Thomas-Fermi vector in A             =   2.330409
 
 Write flags
   LWAVE  =      F    write WAVECAR
   LCHARG =      F    write CHGCAR
   LVTOT  =      F    write LOCPOT, total local potential
   LVHAR  =      F    write LOCPOT, Hartree potential only
   LELF   =      F    write electronic localiz. function (ELF)
   LORBIT =     10    0 simple, 1 ext, 2 COOP (PROOUT)


 Dipole corrections
   LMONO  =      F    monopole corrections only (constant potential shift)
   LDIPOL =      F    correct potential (dipole corrections)
   IDIPOL =      0    1-x, 2-y, 3-z, 4-all directions 
   EPSILON=  1.0000000 bulk dielectric constant

 Exchange correlation treatment:
   GGA     =    --    GGA type
   LEXCH   =     8    internal setting for exchange type
   VOSKOWN=      0    Vosko Wilk Nusair interpolation
   LHFCALC =     F    Hartree Fock is set to
   LHFONE  =     F    Hartree Fock one center treatment
   AEXX    =    0.0000 exact exchange contribution

 Linear response parameters
   LEPSILON=     F    determine dielectric tensor
   LRPA    =     F    only Hartree local field effects (RPA)
   LNABLA  =     F    use nabla operator in PAW spheres
   LVEL    =     F    velocity operator in full k-point grid
   LINTERFAST=   F  fast interpolation
   KINTER  =     0    interpolate to denser k-point grid
   CSHIFT  =0.1000    complex shift for real part using Kramers Kronig
   OMEGAMAX=  -1.0    maximum frequency
   DEG_THRESHOLD= 0.2000000E-02 threshold for treating states as degnerate
   RTIME   =    0.100 relaxation time in fs

 Orbital magnetization related:
   ORBITALMAG=     F  switch on orbital magnetization
   LCHIMAG   =     F  perturbation theory with respect to B field
   DQ        =  0.001000  dq finite difference perturbation B field

 PEAD related settings:
   LPEAD      =     T    switch on PEAD
   IPEAD      =     4    finite difference order for dpsi/dk
   LCALCPOL   =     T    calculate macroscopic polarization
   LCALCEPS   =     F    calculate dielectric tensor
   EFIELD_PEAD=    0.0000    0.0000    0.0000
   SKIP_EDOTP =     F
   LRPA       =     F
   SKIP_SCF   =     F


--------------------------------------------------------------------------------------------------------


 Static calculation
 charge density and potential will be updated during run
 spin polarized calculation
 Variant of blocked Davidson
 Davidson routine will perform the subspace rotation
 perform sub-space diagonalisation
    after iterative eigenvector-optimisation
 modified Broyden-mixing scheme, WC =      100.0
 initial mixing is a Kerker type mixing with AMIX =  0.4000 and BMIX =      1.0000
 Hartree-type preconditioning will be used
 using additional bands          120
 reciprocal scheme for non local part
 use partial core corrections
 calculate Harris-corrections to forces 
   (improved forces if not selfconsistent)
 use gradient corrections 
 use of overlap-Matrix (Vanderbilt PP)
 Gauss-broadening in eV      SIGMA  =   0.10


--------------------------------------------------------------------------------------------------------


  energy-cutoff  :      700.00
  volume of cell :      865.16
      direct lattice vectors                 reciprocal lattice vectors
    14.127037963  0.000000000  0.054644285     0.070622564  0.000000000  0.042316445
     0.000000000  8.242522458  0.000000000     0.000000000  0.121322084  0.000000000
    -4.441639033  0.000000000  7.412719553    -0.000520608  0.000000000  0.134591312

  length of vectors
    14.127143646  8.242522458  8.641560534     0.082329995  0.121322084  0.134592319


 
 k-points in units of 2pi/SCALE and weight: Automatic mesh                          
  -0.00006508  0.01516526  0.01682391       0.083
   0.02347578  0.01516526  0.03092940       0.083
  -0.02360593  0.01516526  0.00271843       0.083
  -0.00006508  0.04549578  0.01682391       0.083
   0.02347578  0.04549578  0.03092940       0.083
  -0.02360593  0.04549578  0.00271843       0.083
  -0.00019523  0.01516526  0.05047174       0.083
   0.02334563  0.01516526  0.06457722       0.083
  -0.02373608  0.01516526  0.03636626       0.083
  -0.00019523  0.04549578  0.05047174       0.083
   0.02334563  0.04549578  0.06457722       0.083
  -0.02373608  0.04549578  0.03636626       0.083
 
 k-points in reciprocal lattice and weights: Automatic mesh                          
   0.00000000  0.12500000  0.12500000       0.083
   0.33333333  0.12500000  0.12500000       0.083
  -0.33333333  0.12500000  0.12500000       0.083
   0.00000000  0.37500000  0.12500000       0.083
   0.33333333  0.37500000  0.12500000       0.083
  -0.33333333  0.37500000  0.12500000       0.083
   0.00000000  0.12500000  0.37500000       0.083
   0.33333333  0.12500000  0.37500000       0.083
  -0.33333333  0.12500000  0.37500000       0.083
   0.00000000  0.37500000  0.37500000       0.083
   0.33333333  0.37500000  0.37500000       0.083
  -0.33333333  0.37500000  0.37500000       0.083
 
 position of ions in fractional coordinates (direct lattice) 
   0.00043558  0.25316242  0.00042653
   0.00043558  0.74683758  0.50042654
   0.50043568  0.75316227  0.00042661
   0.50043566  0.24683773  0.50042661
   0.15622910  0.14272502  0.16255777
   0.15622909  0.85727500  0.66255776
   0.65622920  0.64272487  0.16255779
   0.65622921  0.35727510  0.66255778
   0.04805360  0.52170748  0.63173097
   0.04805360  0.47829252  0.13173096
   0.54805328  0.02170702  0.63173196
   0.54805326  0.97829302  0.13173195
   0.04681030  0.33153918  0.81587723
   0.04681031  0.66846084  0.31587726
   0.54681019  0.83153888  0.81587726
   0.54681019  0.16846111  0.31587728
   0.94208299  0.96822628  0.35436909
   0.94208298  0.03177371  0.85436903
   0.44208277  0.46822621  0.35436890
   0.44208278  0.53177379  0.85436885
   0.94672977  0.16412180  0.17909023
   0.94672973  0.83587817  0.67909028
   0.44672967  0.66412165  0.17909002
   0.44672968  0.33587838  0.67909007
   0.33920700  0.13929738  0.33748867
   0.33920700  0.86070264  0.83748871
   0.83920670  0.63929752  0.33748857
   0.83920666  0.36070248  0.83748861
   0.69399311  0.27861220  0.09397757
   0.69399312  0.72138783  0.59397757
   0.19399243  0.77861285  0.09397844
   0.19399244  0.22138713  0.59397844
   0.24777550  0.21465342  0.24976506
   0.24777550  0.78534656  0.74976508
   0.74777544  0.71465256  0.24976463
   0.74777546  0.28534744  0.74976465
   0.03430852  0.47651934  0.75926714
   0.03430853  0.52348063  0.25926712
   0.53430923  0.97652041  0.75926635
   0.53430924  0.02347957  0.25926633
   0.97675092  0.02599543  0.25692616
   0.97675092  0.97400456  0.75692612
   0.47675126  0.52599584  0.25692635
   0.47675124  0.47400416  0.75692631
   0.80414031  0.23700666  0.42309649
   0.80414032  0.76299331  0.92309650
   0.30414129  0.73700593  0.42309703
   0.30414127  0.26299407  0.92309704
   0.68577015  0.14824752  0.06632086
   0.68577016  0.85175247  0.56632087
   0.18577017  0.64824708  0.06632072
   0.18577017  0.35175295  0.56632073
   0.69310954  0.34557187  0.98417525
   0.69310951  0.65442813  0.48417524
   0.19310955  0.84557205  0.98417466
   0.19310955  0.15442794  0.48417465
   0.62621702  0.31921476  0.11088797
   0.62621704  0.68078524  0.61088800
   0.12621753  0.81921428  0.11088774
   0.12621754  0.18078572  0.61088777
   0.25011602  0.34898601  0.25145623
   0.25011602  0.65101402  0.75145624
   0.75011584  0.84898593  0.25145627
   0.75011585  0.15101404  0.75145627
   0.01051191  0.56881335  0.82630941
   0.01051194  0.43118665  0.32630943
   0.51051131  0.06881354  0.82630922
   0.51051134  0.93118640  0.32630925
   0.03591007  0.95498010  0.23672966
   0.03591006  0.04501989  0.73672965
   0.53590996  0.45497985  0.23672943
   0.53590993  0.54502017  0.73672942
   0.86272528  0.25810306  0.24483205
   0.86272523  0.74189697  0.74483206
   0.36272523  0.75810304  0.24483222
   0.36272522  0.24189694  0.74483223
   0.81426575  0.43451754  0.28456972
   0.81426569  0.56548243  0.78456970
   0.31426572  0.93451768  0.28456962
   0.31426571  0.06548234  0.78456959
   0.88376042  0.26497855  0.54213982
   0.88376042  0.73502145  0.04213986
   0.38376001  0.76497857  0.54213926
   0.38375999  0.23502143  0.04213930
   0.79444152  0.10542680  0.40607359
   0.79444150  0.89457316  0.90607359
   0.29444149  0.60542741  0.40607363
   0.29444150  0.39457262  0.90607364
   0.73653986  0.28784397  0.43472511
   0.73653990  0.71215600  0.93472512
   0.23653937  0.78784450  0.43472517
   0.23653938  0.21215553  0.93472517
   0.80011614  0.30856202  0.26240796
   0.80011615  0.69143798  0.76240797
   0.30011616  0.80856199  0.26240757
   0.30011615  0.19143802  0.76240758
 
 position of ions in cartesian coordinates  (Angst):
   0.00425900  2.08669690  0.00318556
  -2.21656060  6.15582556  3.70954538
   7.06777906  6.20795689  0.03050827
   4.84695922  2.03456557  3.73686809
   1.48503142  1.17641417  1.21353221
  -0.73578819  7.06610841  4.91989192
   8.54855180  5.29767417  1.24085451
   6.32773244  2.94484805  4.94721422
  -2.12706594  4.30018560  4.68547036
   0.09375360  3.94233686  0.97911054
   4.93644413  0.17892061  4.71279981
   7.15726350  8.06360222  1.00643998
  -2.96254132  2.73271917  6.05042704
  -0.74172172  5.50980351  2.34406745
   4.10097608  6.85397787  6.07774935
   6.32179546  1.38854447  2.37138976
  11.73486262  7.98062684  2.67831810
   9.51404326  0.26189553  6.38467746
   4.67134138  3.85936505  2.65099458
   2.45052224  4.38315741  6.35735394
  12.57903322  1.35277765  1.37927902
  10.35821291  6.88974457  5.08563919
   5.51551375  5.47403763  1.35195529
   3.29469415  2.76848506  5.05831546
   3.29298725  1.14816177  2.52024458
   1.07216766  7.09436081  6.22660463
  10.35650251  5.26942417  2.54756601
   8.13568221  2.97309828  6.25392606
   9.38665256  2.29646733  0.73455216
   7.16583319  5.94605537  4.44091193
   2.32312008  6.41773394  0.70723638
   0.10230072  1.82478840  4.41359615
   2.39096760  1.76928568  1.86497787
   0.17014800  6.47323667  5.57133781
   9.45448777  5.89053980  1.89229680
   7.23366840  2.35198265  5.59865674
  -2.88771277  3.92772139  5.63010916
  -0.66689305  4.31480083  1.92374922
   4.17581967  8.04899144  5.65742547
   6.39663951  0.19353087  1.95106553
  12.65742403  0.21426788  1.95789544
  10.43660466  8.02825449  5.66425492
   5.59390904  4.33553253  1.93057471
   3.37308944  3.90698993  5.63693419
   9.48087873  1.95353271  3.18023730
   7.26005937  6.28898952  6.88659713
   2.41737132  6.07478793  3.15291922
   0.19655148  2.16773453  6.85927904
   9.39332760  1.22193347  0.52909133
   7.17250823  7.02058886  4.23545121
   2.32980952  5.34319108  0.50176818
   0.10898991  2.89933162  4.20812806
   5.42023354  2.84838394  7.33328959
   7.64105274  5.39413852  3.62692978
  -1.64328259  6.96964660  7.30596307
   0.57753685  1.27287574  3.59960326
   8.35406724  2.63113485  0.85620057
   6.13324787  5.61138761  4.56256057
   1.29055653  6.75239207  0.82887676
  -0.93026297  1.49013039  4.53523676
   2.41652072  2.87652500  1.87764194
   0.19570112  5.36599770  5.58400176
   9.48003695  6.99778559  1.90496434
   7.25921759  1.24473663  5.61132416
  -3.52166593  4.68845677  6.12577433
  -1.30084610  3.55406568  2.41941474
   3.54184537  0.56719713  6.15309504
   5.76266521  7.67532483  2.44673546
  -0.54416479  7.87144491  1.75677284
  -2.76498440  0.37107749  5.46313255
   6.51935362  3.75018167  1.78409332
   4.29853379  4.49234102  5.49045302
  11.10029718  2.12742025  1.86201436
   8.87947687  6.11510244  5.56837418
   4.03677672  6.24868130  1.83469346
   1.81595712  1.99384093  5.54105329
  10.23920724  3.58152060  2.15393052
   8.01838694  4.66100162  5.86029011
   3.17568823  7.70278296  2.12660760
   0.95486863  0.53973962  5.83296719
  10.07692765  2.18409166  4.06702293
  12.29774702  6.05843080  0.36066342
   3.01340529  6.30535304  4.03969659
   5.23422442  1.93716942  0.33333708
   9.41947319  0.86898274  3.05352131
   7.19865336  7.37353937  6.75988113
   2.35595362  4.99024899  3.02619948
   0.13513426  3.25227370  6.73255930
   8.47423454  2.37256037  3.26274302
   6.25341563  5.86996185  6.96910284
   1.41070840  6.49382598  3.23542128
  -0.81011096  1.74869672  6.94178110
  10.13774961  2.54332934  1.98887840
   7.91693025  5.69919312  5.69523822
   3.07423263  6.66459040  1.96155335
   0.85341303  1.57793217  5.66791317
 


--------------------------------------------------------------------------------------------------------


 k-point  1 :   0.0000 0.1250 0.1250  plane waves:   36385
 k-point  2 :   0.3333 0.1250 0.1250  plane waves:   36370
 k-point  3 :  -0.3333 0.1250 0.1250  plane waves:   36397
 k-point  4 :   0.0000 0.3750 0.1250  plane waves:   36406
 k-point  5 :   0.3333 0.3750 0.1250  plane waves:   36387
 k-point  6 :  -0.3333 0.3750 0.1250  plane waves:   36412
 k-point  7 :   0.0000 0.1250 0.3750  plane waves:   36380
 k-point  8 :   0.3333 0.1250 0.3750  plane waves:   36362
 k-point  9 :  -0.3333 0.1250 0.3750  plane waves:   36379
 k-point 10 :   0.0000 0.3750 0.3750  plane waves:   36354
 k-point 11 :   0.3333 0.3750 0.3750  plane waves:   36366
 k-point 12 :  -0.3333 0.3750 0.3750  plane waves:   36391

 maximum and minimum number of plane-waves per node :     36412    36354

 maximum number of plane-waves:     36412
 maximum index in each direction: 
   IXMAX=   30   IYMAX=   17   IZMAX=   18
   IXMIN=  -30   IYMIN=  -18   IZMIN=  -19

 NGX is ok and might be reduce to 122
 NGY is ok and might be reduce to  72
 NGZ is ok and might be reduce to  76

 serial   3D FFT for wavefunctions
 parallel 3D FFT for charge:
    minimum data exchange during FFTs selected (reduces bandwidth)


 total amount of memory used by VASP on root node   555887. kBytes
========================================================================

   base      :      30000. kBytes
   nonl-proj :     370732. kBytes
   fftplans  :       4320. kBytes
   grid      :      62252. kBytes
   one-center:       2985. kBytes
   wavefun   :      85598. kBytes
 
     INWAV:  cpu time    0.0000: real time    0.0000
 Broyden mixing: mesh for mixing (old mesh)
   NGX = 61   NGY = 35   NGZ = 37
  (NGX  =160   NGY  = 96   NGZ  = 96)
  gives a total of  78995 points

 initial charge density was supplied:
 number of electron     336.0000147 magnetization      -0.0000000
 keeping initial charge density in first step


--------------------------------------------------------------------------------------------------------


 Maximum index for augmentation-charges          368 (set IRDMAX)


--------------------------------------------------------------------------------------------------------


 First call to EWALD:  gamma=   0.186
 Maximum number of real-space cells 2x 3x 3
 Maximum number of reciprocal cells 4x 2x 3

 FEWALD executed in parallel
    FEWALD:  cpu time    0.0026: real time    0.0026


----------------------------------------- Iteration    1(   1)  ---------------------------------------


    POTLOK:  cpu time    0.1093: real time    0.1092
    SETDIJ:  cpu time    0.0131: real time    0.0130
     EDDAV:  cpu time   47.8787: real time   47.2927
       DOS:  cpu time    0.0042: real time    0.0042
    --------------------------------------------
      LOOP:  cpu time   48.0071: real time   47.4210

 eigenvalue-minimisations  : 13824
 total energy-change (2. order) : 0.2533757E+04  (-0.1836034E+05)
 number of electron     336.0000147 magnetization      -0.0000000
 augmentation part      336.0000147 magnetization      -0.0000000

 Free energy of the ion-electron system (eV)
  ---------------------------------------------------
  alpha Z        PSCENC =       654.02069629
  Ewald energy   TEWEN  =    -10727.71958112
  -Hartree energ DENC   =    -10374.32054755
  -exchange      EXHF   =         0.00000000
  -V(xc)+E(xc)   XCENC  =      1409.12165534
  PAW double counting   =     15725.57166872   -16518.61833790
  entropy T*S    EENTRO =        -0.06584644
  eigenvalues    EBANDS =       442.85399582
  atomic energy  EATOM  =     21922.91310393
  Solvation  Ediel_sol  =         0.00000000
  ---------------------------------------------------
  free energy    TOTEN  =      2533.75680709 eV

  energy without entropy =     2533.82265353  energy(sigma->0) =     2533.78973031


--------------------------------------------------------------------------------------------------------




----------------------------------------- Iteration    1(   2)  ---------------------------------------


     EDDAV:  cpu time   49.6265: real time   49.1938
       DOS:  cpu time    0.0049: real time    0.0049
    --------------------------------------------
      LOOP:  cpu time   49.6320: real time   49.2025

 eigenvalue-minimisations  : 14640
 total energy-change (2. order) :-0.2752622E+04  (-0.2517822E+04)
 number of electron     336.0000147 magnetization      -0.0000000
 augmentation part      336.0000147 magnetization      -0.0000000

 Free energy of the ion-electron system (eV)
  ---------------------------------------------------
  alpha Z        PSCENC =       654.02069629
  Ewald energy   TEWEN  =    -10727.71958112
  -Hartree energ DENC   =    -10374.32054755
  -exchange      EXHF   =         0.00000000
  -V(xc)+E(xc)   XCENC  =      1409.12165534
  PAW double counting   =     15725.57166872   -16518.61833790
  entropy T*S    EENTRO =        -0.00000000
  eigenvalues    EBANDS =     -2309.83422155
  atomic energy  EATOM  =     21922.91310393
  Solvation  Ediel_sol  =         0.00000000
  ---------------------------------------------------
  free energy    TOTEN  =      -218.86556384 eV

  energy without entropy =     -218.86556384  energy(sigma->0) =     -218.86556384


--------------------------------------------------------------------------------------------------------




----------------------------------------- Iteration    1(   3)  ---------------------------------------


     EDDAV:  cpu time   53.8523: real time   53.2242
       DOS:  cpu time    0.0054: real time    0.0054
    CHARGE:  cpu time    1.4645: real time    1.4604
    MIXING:  cpu time    0.0015: real time    0.0015
    --------------------------------------------
      LOOP:  cpu time   55.3242: real time   54.6921

 eigenvalue-minimisations  : 16128
 total energy-change (2. order) :-0.3259838E+03  (-0.3203672E+03)
 number of electron     336.0000149 magnetization       0.0000000
 augmentation part       52.0045129 magnetization      -0.0024256

 Broyden mixing:
  rms(total) = 0.68980E+00    rms(broyden)= 0.68978E+00
  rms(prec ) = 0.72263E+00
  weight for this iteration     100.00

 Free energy of the ion-electron system (eV)
  ---------------------------------------------------
  alpha Z        PSCENC =       654.02069629
  Ewald energy   TEWEN  =    -10727.71958112
  -Hartree energ DENC   =    -10374.32054755
  -exchange      EXHF   =         0.00000000
  -V(xc)+E(xc)   XCENC  =      1409.12165534
  PAW double counting   =     15725.57166872   -16518.61833790
  entropy T*S    EENTRO =        -0.00000000
  eigenvalues    EBANDS =     -2635.81798659
  atomic energy  EATOM  =     21922.91310393
  Solvation  Ediel_sol  =         0.00000000
  ---------------------------------------------------
  free energy    TOTEN  =      -544.84932888 eV

  energy without entropy =     -544.84932888  energy(sigma->0) =     -544.84932888


--------------------------------------------------------------------------------------------------------




----------------------------------------- Iteration    1(   4)  ---------------------------------------


    POTLOK:  cpu time    0.1050: real time    0.1049
    SETDIJ:  cpu time    0.0135: real time    0.0134
     EDDAV:  cpu time   56.8107: real time   56.1562
       DOS:  cpu time    0.0056: real time    0.0056
    CHARGE:  cpu time    1.4326: real time    1.4276
    MIXING:  cpu time    0.0014: real time    0.0014
    --------------------------------------------
      LOOP:  cpu time   58.3692: real time   57.7096

 eigenvalue-minimisations  : 17280
 total energy-change (2. order) :-0.8717973E+01  (-0.9097613E+01)
 number of electron     336.0000147 magnetization       0.0000000
 augmentation part       51.8495740 magnetization      -0.0005302

 Broyden mixing:
  rms(total) = 0.45612E+00    rms(broyden)= 0.45610E+00
  rms(prec ) = 0.48632E+00
  weight for this iteration     100.00

 eigenvalues of (default mixing * dielectric matrix)
  average eigenvalue GAMMA=   0.6037
  0.6037

 Free energy of the ion-electron system (eV)
  ---------------------------------------------------
  alpha Z        PSCENC =       654.02069629
  Ewald energy   TEWEN  =    -10727.71958112
  -Hartree energ DENC   =    -10351.30387181
  -exchange      EXHF   =         0.00000000
  -V(xc)+E(xc)   XCENC  =      1407.65358720
  PAW double counting   =     15732.91983330   -16536.87220501
  entropy T*S    EENTRO =        -0.00000000
  eigenvalues    EBANDS =     -2655.17886421
  atomic energy  EATOM  =     21922.91310393
  Solvation  Ediel_sol  =         0.00000000
  ---------------------------------------------------
  free energy    TOTEN  =      -553.56730143 eV

  energy without entropy =     -553.56730143  energy(sigma->0) =     -553.56730143


--------------------------------------------------------------------------------------------------------




----------------------------------------- Iteration    1(   5)  ---------------------------------------


    POTLOK:  cpu time    0.0901: real time    0.0900
    SETDIJ:  cpu time    0.0131: real time    0.0131
     EDDAV:  cpu time   61.2422: real time   60.5944
       DOS:  cpu time    0.0056: real time    0.0056
    CHARGE:  cpu time    1.4380: real time    1.4332
    MIXING:  cpu time    0.0015: real time    0.0015
    --------------------------------------------
      LOOP:  cpu time   62.7910: real time   62.1383

 eigenvalue-minimisations  : 18816
 total energy-change (2. order) : 0.1744048E-01  (-0.1983740E+00)
 number of electron     336.0000147 magnetization       0.0000000
 augmentation part       51.8846928 magnetization       0.0000829

 Broyden mixing:
  rms(total) = 0.26208E+00    rms(broyden)= 0.26207E+00
  rms(prec ) = 0.28074E+00
  weight for this iteration     100.00

 eigenvalues of (default mixing * dielectric matrix)
  average eigenvalue GAMMA=   0.6218
  0.6218  0.6218

 Free energy of the ion-electron system (eV)
  ---------------------------------------------------
  alpha Z        PSCENC =       654.02069629
  Ewald energy   TEWEN  =    -10727.71958112
  -Hartree energ DENC   =    -10359.49618348
  -exchange      EXHF   =         0.00000000
  -V(xc)+E(xc)   XCENC  =      1408.26049634
  PAW double counting   =     15740.05708581   -16538.26546040
  entropy T*S    EENTRO =        -0.00000000
  eigenvalues    EBANDS =     -2653.32001833
  atomic energy  EATOM  =     21922.91310393
  Solvation  Ediel_sol  =         0.00000000
  ---------------------------------------------------
  free energy    TOTEN  =      -553.54986096 eV

  energy without entropy =     -553.54986096  energy(sigma->0) =     -553.54986096


--------------------------------------------------------------------------------------------------------




----------------------------------------- Iteration    1(   6)  ---------------------------------------


    POTLOK:  cpu time    0.0917: real time    0.0916
    SETDIJ:  cpu time    0.0136: real time    0.0135
     EDDAV:  cpu time   63.4532: real time   62.7269
       DOS:  cpu time    0.0059: real time    0.0059
    CHARGE:  cpu time    1.4322: real time    1.4275
    MIXING:  cpu time    0.0017: real time    0.0017
    --------------------------------------------
      LOOP:  cpu time   64.9986: real time   64.2676

 eigenvalue-minimisations  : 19872
 total energy-change (2. order) : 0.2824862E-01  (-0.1430715E-01)
 number of electron     336.0000147 magnetization       0.0000000
 augmentation part       51.8596908 magnetization      -0.0000428

 Broyden mixing:
  rms(total) = 0.18599E+00    rms(broyden)= 0.18598E+00
  rms(prec ) = 0.19656E+00
  weight for this iteration     100.00

 eigenvalues of (default mixing * dielectric matrix)
  average eigenvalue GAMMA=   0.7160
  0.7834  0.7834  0.5814

 Free energy of the ion-electron system (eV)
  ---------------------------------------------------
  alpha Z        PSCENC =       654.02069629
  Ewald energy   TEWEN  =    -10727.71958112
  -Hartree energ DENC   =    -10365.05914395
  -exchange      EXHF   =         0.00000000
  -V(xc)+E(xc)   XCENC  =      1408.60057299
  PAW double counting   =     15742.76891265   -16539.76557144
  entropy T*S    EENTRO =        -0.00000000
  eigenvalues    EBANDS =     -2649.28060169
  atomic energy  EATOM  =     21922.91310393
  Solvation  Ediel_sol  =         0.00000000
  ---------------------------------------------------
  free energy    TOTEN  =      -553.52161234 eV

  energy without entropy =     -553.52161234  energy(sigma->0) =     -553.52161234


--------------------------------------------------------------------------------------------------------




----------------------------------------- Iteration    1(   7)  ---------------------------------------


    POTLOK:  cpu time    0.0895: real time    0.0894
    SETDIJ:  cpu time    0.0134: real time    0.0133
     EDDAV:  cpu time   67.2004: real time   66.4796
       DOS:  cpu time    0.0056: real time    0.0056
    CHARGE:  cpu time    1.4278: real time    1.4236
    MIXING:  cpu time    0.0018: real time    0.0018
    --------------------------------------------
      LOOP:  cpu time   68.7390: real time   68.0139

 eigenvalue-minimisations  : 21312
 total energy-change (2. order) : 0.1192636E-01  (-0.1780855E-02)
 number of electron     336.0000147 magnetization       0.0000000
 augmentation part       51.8604992 magnetization      -0.0000843

 Broyden mixing:
  rms(total) = 0.14417E+00    rms(broyden)= 0.14417E+00
  rms(prec ) = 0.15167E+00
  weight for this iteration     100.00

 eigenvalues of (default mixing * dielectric matrix)
  average eigenvalue GAMMA=   0.7737
  0.9659  0.9659  0.5814  0.5814

 Free energy of the ion-electron system (eV)
  ---------------------------------------------------
  alpha Z        PSCENC =       654.02069629
  Ewald energy   TEWEN  =    -10727.71958112
  -Hartree energ DENC   =    -10367.10322805
  -exchange      EXHF   =         0.00000000
  -V(xc)+E(xc)   XCENC  =      1408.71833009
  PAW double counting   =     15739.02260709   -16535.14383059
  entropy T*S    EENTRO =        -0.00000000
  eigenvalues    EBANDS =     -2648.21778362
  atomic energy  EATOM  =     21922.91310393
  Solvation  Ediel_sol  =         0.00000000
  ---------------------------------------------------
  free energy    TOTEN  =      -553.50968598 eV

  energy without entropy =     -553.50968598  energy(sigma->0) =     -553.50968598


--------------------------------------------------------------------------------------------------------




----------------------------------------- Iteration    1(   8)  ---------------------------------------


    POTLOK:  cpu time    0.0897: real time    0.0896
    SETDIJ:  cpu time    0.0135: real time    0.0135
     EDDAV:  cpu time   66.1243: real time   65.3803
       DOS:  cpu time    0.0057: real time    0.0057
    CHARGE:  cpu time    1.4369: real time    1.4317
    MIXING:  cpu time    0.0022: real time    0.0022
    --------------------------------------------
      LOOP:  cpu time   67.6728: real time   66.9241

 eigenvalue-minimisations  : 20784
 total energy-change (2. order) : 0.7054621E-02  (-0.4071555E-03)
 number of electron     336.0000147 magnetization       0.0000000
 augmentation part       51.8578944 magnetization      -0.0000760

 Broyden mixing:
  rms(total) = 0.11208E+00    rms(broyden)= 0.11208E+00
  rms(prec ) = 0.11759E+00
  weight for this iteration     100.00

 eigenvalues of (default mixing * dielectric matrix)
  average eigenvalue GAMMA=   0.8111
  1.1190  1.1190  0.5633  0.6271  0.6271

 Free energy of the ion-electron system (eV)
  ---------------------------------------------------
  alpha Z        PSCENC =       654.02069629
  Ewald energy   TEWEN  =    -10727.71958112
  -Hartree energ DENC   =    -10368.95135721
  -exchange      EXHF   =         0.00000000
  -V(xc)+E(xc)   XCENC  =      1408.82599852
  PAW double counting   =     15736.83103223   -16532.28841992
  entropy T*S    EENTRO =        -0.00000000
  eigenvalues    EBANDS =     -2647.13410407
  atomic energy  EATOM  =     21922.91310393
  Solvation  Ediel_sol  =         0.00000000
  ---------------------------------------------------
  free energy    TOTEN  =      -553.50263136 eV

  energy without entropy =     -553.50263136  energy(sigma->0) =     -553.50263136


--------------------------------------------------------------------------------------------------------




----------------------------------------- Iteration    1(   9)  ---------------------------------------


    POTLOK:  cpu time    0.0916: real time    0.0915
    SETDIJ:  cpu time    0.0131: real time    0.0130
     EDDAV:  cpu time   68.5079: real time   67.7604
       DOS:  cpu time    0.0057: real time    0.0058
    CHARGE:  cpu time    1.4391: real time    1.4345
    MIXING:  cpu time    0.0022: real time    0.0022
    --------------------------------------------
      LOOP:  cpu time   70.0600: real time   69.3079

 eigenvalue-minimisations  : 21840
 total energy-change (2. order) : 0.3144749E-02  (-0.2816225E-03)
 number of electron     336.0000147 magnetization       0.0000000
 augmentation part       51.8548730 magnetization      -0.0000675

 Broyden mixing:
  rms(total) = 0.90305E-01    rms(broyden)= 0.90305E-01
  rms(prec ) = 0.94490E-01
  weight for this iteration     100.00

 eigenvalues of (default mixing * dielectric matrix)
  average eigenvalue GAMMA=   0.8381
  1.2850  1.2850  0.6857  0.6857  0.5436  0.5436

 Free energy of the ion-electron system (eV)
  ---------------------------------------------------
  alpha Z        PSCENC =       654.02069629
  Ewald energy   TEWEN  =    -10727.71958112
  -Hartree energ DENC   =    -10370.07431580
  -exchange      EXHF   =         0.00000000
  -V(xc)+E(xc)   XCENC  =      1408.88915112
  PAW double counting   =     15734.94511856   -16529.96538852
  entropy T*S    EENTRO =        -0.00000000
  eigenvalues    EBANDS =     -2646.50827107
  atomic energy  EATOM  =     21922.91310393
  Solvation  Ediel_sol  =         0.00000000
  ---------------------------------------------------
  free energy    TOTEN  =      -553.49948661 eV

  energy without entropy =     -553.49948661  energy(sigma->0) =     -553.49948661


--------------------------------------------------------------------------------------------------------




----------------------------------------- Iteration    1(  10)  ---------------------------------------


    POTLOK:  cpu time    0.0901: real time    0.0900
    SETDIJ:  cpu time    0.0133: real time    0.0133
     EDDAV:  cpu time   66.2811: real time   65.5196
       DOS:  cpu time    0.0057: real time    0.0057
    CHARGE:  cpu time    1.4313: real time    1.4264
    MIXING:  cpu time    0.0022: real time    0.0022
    --------------------------------------------
      LOOP:  cpu time   67.8242: real time   67.0585

 eigenvalue-minimisations  : 20880
 total energy-change (2. order) : 0.1581740E-02  (-0.6413213E-04)
 number of electron     336.0000147 magnetization       0.0000000
 augmentation part       51.8543973 magnetization      -0.0000555

 Broyden mixing:
  rms(total) = 0.76051E-01    rms(broyden)= 0.76051E-01
  rms(prec ) = 0.79658E-01
  weight for this iteration     100.00

 eigenvalues of (default mixing * dielectric matrix)
  average eigenvalue GAMMA=   0.8997
  1.5118  1.5118  0.7783  0.7783  0.5906  0.5906  0.5361

 Free energy of the ion-electron system (eV)
  ---------------------------------------------------
  alpha Z        PSCENC =       654.02069629
  Ewald energy   TEWEN  =    -10727.71958112
  -Hartree energ DENC   =    -10370.70409816
  -exchange      EXHF   =         0.00000000
  -V(xc)+E(xc)   XCENC  =      1408.92337148
  PAW double counting   =     15733.37033396   -16528.07064527
  entropy T*S    EENTRO =        -0.00000000
  eigenvalues    EBANDS =     -2646.23108599
  atomic energy  EATOM  =     21922.91310393
  Solvation  Ediel_sol  =         0.00000000
  ---------------------------------------------------
  free energy    TOTEN  =      -553.49790487 eV

  energy without entropy =     -553.49790487  energy(sigma->0) =     -553.49790487


--------------------------------------------------------------------------------------------------------




----------------------------------------- Iteration    1(  11)  ---------------------------------------


    POTLOK:  cpu time    0.0905: real time    0.0904
    SETDIJ:  cpu time    0.0135: real time    0.0134
     EDDAV:  cpu time   65.2067: real time   64.4854
       DOS:  cpu time    0.0057: real time    0.0057
    CHARGE:  cpu time    1.4810: real time    1.4757
    MIXING:  cpu time    0.0026: real time    0.0026
    --------------------------------------------
      LOOP:  cpu time   66.8004: real time   66.0737

 eigenvalue-minimisations  : 20352
 total energy-change (2. order) : 0.2492715E-02  (-0.1699332E-03)
 number of electron     336.0000147 magnetization       0.0000000
 augmentation part       51.8545451 magnetization      -0.0000277

 Broyden mixing:
  rms(total) = 0.48542E-01    rms(broyden)= 0.48542E-01
  rms(prec ) = 0.50968E-01
  weight for this iteration     100.00

 eigenvalues of (default mixing * dielectric matrix)
  average eigenvalue GAMMA=   0.9062
  1.6637  1.6637  0.8328  0.8328  0.6014  0.6014  0.5270  0.5270

 Free energy of the ion-electron system (eV)
  ---------------------------------------------------
  alpha Z        PSCENC =       654.02069629
  Ewald energy   TEWEN  =    -10727.71958112
  -Hartree energ DENC   =    -10371.99849418
  -exchange      EXHF   =         0.00000000
  -V(xc)+E(xc)   XCENC  =      1408.99435296
  PAW double counting   =     15730.41939022   -16524.50369170
  entropy T*S    EENTRO =        -0.00000000
  eigenvalues    EBANDS =     -2645.62118855
  atomic energy  EATOM  =     21922.91310393
  Solvation  Ediel_sol  =         0.00000000
  ---------------------------------------------------
  free energy    TOTEN  =      -553.49541216 eV

  energy without entropy =     -553.49541216  energy(sigma->0) =     -553.49541216


--------------------------------------------------------------------------------------------------------




----------------------------------------- Iteration    1(  12)  ---------------------------------------


    POTLOK:  cpu time    0.0957: real time    0.0955
    SETDIJ:  cpu time    0.0138: real time    0.0138
     EDDAV:  cpu time   68.0946: real time   67.3377
       DOS:  cpu time    0.0057: real time    0.0057
    CHARGE:  cpu time    1.4527: real time    1.4482
    MIXING:  cpu time    0.0029: real time    0.0029
    --------------------------------------------
      LOOP:  cpu time   69.6659: real time   68.9043

 eigenvalue-minimisations  : 21456
 total energy-change (2. order) : 0.1246109E-02  (-0.2156026E-03)
 number of electron     336.0000147 magnetization       0.0000000
 augmentation part       51.8532964 magnetization      -0.0000113

 Broyden mixing:
  rms(total) = 0.24073E-01    rms(broyden)= 0.24073E-01
  rms(prec ) = 0.25198E-01
  weight for this iteration     100.00

 eigenvalues of (default mixing * dielectric matrix)
  average eigenvalue GAMMA=   0.9330
  1.8399  1.8399  0.8920  0.8920  0.6424  0.6424  0.5265  0.5607  0.5607

 Free energy of the ion-electron system (eV)
  ---------------------------------------------------
  alpha Z        PSCENC =       654.02069629
  Ewald energy   TEWEN  =    -10727.71958112
  -Hartree energ DENC   =    -10373.18608277
  -exchange      EXHF   =         0.00000000
  -V(xc)+E(xc)   XCENC  =      1409.05994774
  PAW double counting   =     15728.14630261   -16521.72493269
  entropy T*S    EENTRO =        -0.00000000
  eigenvalues    EBANDS =     -2645.00362004
  atomic energy  EATOM  =     21922.91310393
  Solvation  Ediel_sol  =         0.00000000
  ---------------------------------------------------
  free energy    TOTEN  =      -553.49416605 eV

  energy without entropy =     -553.49416605  energy(sigma->0) =     -553.49416605


--------------------------------------------------------------------------------------------------------




----------------------------------------- Iteration    1(  13)  ---------------------------------------


    POTLOK:  cpu time    0.0956: real time    0.0955
    SETDIJ:  cpu time    0.0137: real time    0.0137
     EDDAV:  cpu time   68.6373: real time   67.9339
       DOS:  cpu time    0.0058: real time    0.0058
    CHARGE:  cpu time    1.4286: real time    1.4246
    MIXING:  cpu time    0.0028: real time    0.0028
    --------------------------------------------
      LOOP:  cpu time   70.1842: real time   69.4767

 eigenvalue-minimisations  : 21840
 total energy-change (2. order) : 0.2389358E-03  (-0.8250703E-04)
 number of electron     336.0000147 magnetization       0.0000000
 augmentation part       51.8521801 magnetization      -0.0000056

 Broyden mixing:
  rms(total) = 0.12257E-01    rms(broyden)= 0.12257E-01
  rms(prec ) = 0.12795E-01
  weight for this iteration     100.00

 eigenvalues of (default mixing * dielectric matrix)
  average eigenvalue GAMMA=   0.9554
  2.0188  2.0188  0.9846  0.9846  0.6884  0.6884  0.5706  0.5706  0.5144  0.5144

 Free energy of the ion-electron system (eV)
  ---------------------------------------------------
  alpha Z        PSCENC =       654.02069629
  Ewald energy   TEWEN  =    -10727.71958112
  -Hartree energ DENC   =    -10373.74256990
  -exchange      EXHF   =         0.00000000
  -V(xc)+E(xc)   XCENC  =      1409.09036108
  PAW double counting   =     15726.92738134   -16520.25964920
  entropy T*S    EENTRO =        -0.00000000
  eigenvalues    EBANDS =     -2644.72366952
  atomic energy  EATOM  =     21922.91310393
  Solvation  Ediel_sol  =         0.00000000
  ---------------------------------------------------
  free energy    TOTEN  =      -553.49392711 eV

  energy without entropy =     -553.49392711  energy(sigma->0) =     -553.49392711


--------------------------------------------------------------------------------------------------------




----------------------------------------- Iteration    1(  14)  ---------------------------------------


    POTLOK:  cpu time    0.0905: real time    0.0903
    SETDIJ:  cpu time    0.0135: real time    0.0135
     EDDAV:  cpu time   69.2854: real time   68.4935
       DOS:  cpu time    0.0056: real time    0.0056
    CHARGE:  cpu time    1.4524: real time    1.4482
    MIXING:  cpu time    0.0032: real time    0.0032
    --------------------------------------------
      LOOP:  cpu time   70.8511: real time   70.0548

 eigenvalue-minimisations  : 21888
 total energy-change (2. order) : 0.4373759E-04  (-0.1086908E-04)
 number of electron     336.0000147 magnetization       0.0000000
 augmentation part       51.8518273 magnetization      -0.0000050

 Broyden mixing:
  rms(total) = 0.85766E-02    rms(broyden)= 0.85765E-02
  rms(prec ) = 0.89472E-02
  weight for this iteration     100.00

 eigenvalues of (default mixing * dielectric matrix)
  average eigenvalue GAMMA=   1.0814
  2.5600  2.5600  1.1555  1.1555  0.7710  0.7710  0.6321  0.6321  0.5616  0.5616
  0.5350

 Free energy of the ion-electron system (eV)
  ---------------------------------------------------
  alpha Z        PSCENC =       654.02069629
  Ewald energy   TEWEN  =    -10727.71958112
  -Hartree energ DENC   =    -10373.93527988
  -exchange      EXHF   =         0.00000000
  -V(xc)+E(xc)   XCENC  =      1409.10038865
  PAW double counting   =     15726.50168355   -16519.74978607
  entropy T*S    EENTRO =        -0.00000000
  eigenvalues    EBANDS =     -2644.62510872
  atomic energy  EATOM  =     21922.91310393
  Solvation  Ediel_sol  =         0.00000000
  ---------------------------------------------------
  free energy    TOTEN  =      -553.49388338 eV

  energy without entropy =     -553.49388338  energy(sigma->0) =     -553.49388338


--------------------------------------------------------------------------------------------------------




----------------------------------------- Iteration    1(  15)  ---------------------------------------


    POTLOK:  cpu time    0.0934: real time    0.0933
    SETDIJ:  cpu time    0.0151: real time    0.0150
     EDDAV:  cpu time   66.0269: real time   65.3515
       DOS:  cpu time    0.0058: real time    0.0058
    CHARGE:  cpu time    1.4510: real time    1.4464
    MIXING:  cpu time    0.0033: real time    0.0033
    --------------------------------------------
      LOOP:  cpu time   67.5959: real time   66.9164

 eigenvalue-minimisations  : 20784
 total energy-change (2. order) : 0.4847558E-04  (-0.8671909E-05)
 number of electron     336.0000147 magnetization       0.0000000
 augmentation part       51.8518808 magnetization      -0.0000020

 Broyden mixing:
  rms(total) = 0.22209E-02    rms(broyden)= 0.22208E-02
  rms(prec ) = 0.23310E-02
  weight for this iteration     100.00

 eigenvalues of (default mixing * dielectric matrix)
  average eigenvalue GAMMA=   1.2087
  3.1242  3.1242  1.3368  1.3368  0.8776  0.8776  0.7093  0.7093  0.6294  0.6294
  0.5752  0.5752

 Free energy of the ion-electron system (eV)
  ---------------------------------------------------
  alpha Z        PSCENC =       654.02069629
  Ewald energy   TEWEN  =    -10727.71958112
  -Hartree energ DENC   =    -10374.23517354
  -exchange      EXHF   =         0.00000000
  -V(xc)+E(xc)   XCENC  =      1409.11679188
  PAW double counting   =     15725.85818747   -16518.96086653
  entropy T*S    EENTRO =        -0.00000000
  eigenvalues    EBANDS =     -2644.48699327
[...]
   0.126E+02 0.457E+02 0.125E+01   -.129E+02 -.515E+02 -.183E+01   0.304E+00 0.577E+01 0.571E+00   0.147E-04 0.127E-03 -.544E-05
   0.126E+02 -.457E+02 0.125E+01   -.129E+02 0.515E+02 -.183E+01   0.304E+00 -.577E+01 0.571E+00   0.136E-04 -.128E-03 -.471E-05
   0.352E+02 -.143E+02 -.492E+01   -.406E+02 0.164E+02 0.539E+01   0.542E+01 -.212E+01 -.484E+00   0.120E-03 -.378E-04 -.259E-04
   0.352E+02 0.143E+02 -.492E+01   -.406E+02 -.164E+02 0.539E+01   0.542E+01 0.212E+01 -.484E+00   0.121E-03 0.376E-04 -.268E-04
   0.352E+02 -.143E+02 -.492E+01   -.406E+02 0.164E+02 0.539E+01   0.542E+01 -.212E+01 -.484E+00   0.119E-03 -.453E-04 -.268E-04
   0.352E+02 0.143E+02 -.492E+01   -.406E+02 -.164E+02 0.539E+01   0.542E+01 0.212E+01 -.484E+00   0.118E-03 0.454E-04 -.260E-04
   -.171E+02 -.470E+01 0.128E+01   0.190E+02 0.594E+01 -.102E+01   -.190E+01 -.125E+01 -.257E+00   -.607E-03 -.330E-03 -.377E-04
   -.171E+02 0.470E+01 0.128E+01   0.190E+02 -.594E+01 -.102E+01   -.190E+01 0.125E+01 -.257E+00   -.605E-03 0.331E-03 -.388E-04
   -.171E+02 -.470E+01 0.128E+01   0.190E+02 0.594E+01 -.102E+01   -.190E+01 -.125E+01 -.257E+00   -.562E-03 -.379E-03 -.156E-04
   -.171E+02 0.470E+01 0.128E+01   0.190E+02 -.594E+01 -.102E+01   -.190E+01 0.125E+01 -.257E+00   -.564E-03 0.378E-03 -.138E-04
 -----------------------------------------------------------------------------------------------
   -.303E+02 -.764E-01 -.444E+02   -.771E-12 -.320E-13 0.198E-12   0.303E+02 0.355E-14 0.444E+02   -.992E-03 0.222E-05 0.465E-03
 
 
 POSITION                                       TOTAL-FORCE (eV/Angst)
 -----------------------------------------------------------------------------------
      0.00426      2.08670      0.00319         0.000002      0.000000     -0.000130
     -2.21656      6.15583      3.70955         0.000002     -0.000000     -0.000130
      7.06778      6.20796      0.03051         0.000002      0.000000     -0.000130
      4.84696      2.03457      3.73687         0.000002     -0.000000     -0.000130
      1.48503      1.17641      1.21353         0.000444     -0.001087      0.000677
     -0.73579      7.06611      4.91989         0.000444      0.001087      0.000677
      8.54855      5.29767      1.24085         0.000444     -0.001087      0.000677
      6.32773      2.94485      4.94721         0.000444      0.001087      0.000677
     -2.12707      4.30019      4.68547        -0.000324     -0.000480      0.004444
      0.09375      3.94234      0.97911        -0.000324      0.000480      0.004444
      4.93644      0.17892      4.71280        -0.000324     -0.000480      0.004444
      7.15726      8.06360      1.00644        -0.000324      0.000480      0.004444
     -2.96254      2.73272      6.05043         0.001280      0.005771     -0.002229
     -0.74172      5.50980      2.34407         0.001280     -0.005771     -0.002229
      4.10098      6.85398      6.07775         0.001280      0.005771     -0.002229
      6.32180      1.38854      2.37139         0.001280     -0.005771     -0.002229
     11.73486      7.98063      2.67832         0.001179      0.001744     -0.003322
      9.51404      0.26190      6.38468         0.001179     -0.001744     -0.003322
      4.67134      3.85937      2.65099         0.001179      0.001744     -0.003322
      2.45052      4.38316      6.35735         0.001179     -0.001744     -0.003322
     12.57903      1.35278      1.37928        -0.001490     -0.001227      0.001238
     10.35821      6.88974      5.08564        -0.001490      0.001227      0.001238
      5.51551      5.47404      1.35196        -0.001490     -0.001227      0.001238
      3.29469      2.76849      5.05832        -0.001490      0.001227      0.001238
      3.29299      1.14816      2.52024         0.000075     -0.000934     -0.000348
      1.07217      7.09436      6.22660         0.000075      0.000934     -0.000348
     10.35650      5.26942      2.54757         0.000075     -0.000934     -0.000348
      8.13568      2.97310      6.25393         0.000075      0.000934     -0.000348
      9.38665      2.29647      0.73455        -0.000277      0.000475      0.003552
      7.16583      5.94606      4.44091        -0.000277     -0.000475      0.003552
      2.32312      6.41773      0.70724        -0.000277      0.000475      0.003552
      0.10230      1.82479      4.41360        -0.000277     -0.000475      0.003552
      2.39097      1.76929      1.86498         0.000044     -0.003450      0.000198
      0.17015      6.47324      5.57134         0.000044      0.003450      0.000198
      9.45449      5.89054      1.89230         0.000044     -0.003450      0.000198
      7.23367      2.35198      5.59866         0.000044      0.003450      0.000198
     -2.88771      3.92772      5.63011         0.000925     -0.003849      0.000730
     -0.66689      4.31480      1.92375         0.000925      0.003849      0.000730
      4.17582      8.04899      5.65743         0.000925     -0.003849      0.000730
      6.39664      0.19353      1.95107         0.000925      0.003849      0.000730
     12.65742      0.21427      1.95790         0.002789     -0.003019     -0.000091
     10.43660      8.02825      5.66425         0.002789      0.003019     -0.000091
      5.59391      4.33553      1.93057         0.002789     -0.003019     -0.000091
      3.37309      3.90699      5.63693         0.002789      0.003019     -0.000091
      9.48088      1.95353      3.18024         0.003394     -0.000530     -0.001160
      7.26006      6.28899      6.88660         0.003394      0.000530     -0.001160
      2.41737      6.07479      3.15292         0.003394     -0.000530     -0.001160
      0.19655      2.16773      6.85928         0.003394      0.000530     -0.001160
      9.39333      1.22193      0.52909         0.000224     -0.003010     -0.002689
      7.17251      7.02059      4.23545         0.000224      0.003010     -0.002689
      2.32981      5.34319      0.50177         0.000224     -0.003010     -0.002689
      0.10899      2.89933      4.20813         0.000224      0.003010     -0.002689
      5.42023      2.84838      7.33329        -0.000180      0.001203     -0.002608
      7.64105      5.39414      3.62693        -0.000180     -0.001203     -0.002608
     -1.64328      6.96965      7.30596        -0.000180      0.001203     -0.002608
      0.57754      1.27288      3.59960        -0.000180     -0.001203     -0.002608
      8.35407      2.63113      0.85620        -0.001166     -0.001832     -0.001004
      6.13325      5.61139      4.56256        -0.001166      0.001832     -0.001004
      1.29056      6.75239      0.82888        -0.001166     -0.001832     -0.001004
     -0.93026      1.49013      4.53524        -0.001166      0.001832     -0.001004
      2.41652      2.87652      1.87764         0.000035     -0.000485      0.000493
      0.19570      5.36600      5.58400         0.000035      0.000485      0.000493
      9.48004      6.99779      1.90496         0.000035     -0.000485      0.000493
      7.25922      1.24474      5.61132         0.000035      0.000485      0.000493
     -3.52167      4.68846      6.12577        -0.000512     -0.001048     -0.000861
     -1.30085      3.55407      2.41941        -0.000512      0.001048     -0.000861
      3.54185      0.56720      6.15310        -0.000512     -0.001048     -0.000861
      5.76267      7.67532      2.44674        -0.000512      0.001048     -0.000861
     -0.54416      7.87144      1.75677        -0.003021      0.002867      0.000717
     -2.76498      0.37108      5.46313        -0.003021     -0.002867      0.000717
      6.51935      3.75018      1.78409        -0.003021      0.002867      0.000717
      4.29853      4.49234      5.49045        -0.003021     -0.002867      0.000717
     11.10030      2.12742      1.86201        -0.001892     -0.000143      0.000518
      8.87948      6.11510      5.56837        -0.001892      0.000143      0.000518
      4.03678      6.24868      1.83469        -0.001892     -0.000143      0.000518
      1.81596      1.99384      5.54105        -0.001892      0.000143      0.000518
     10.23921      3.58152      2.15393        -0.000863     -0.002733      0.000200
      8.01839      4.66100      5.86029        -0.000863      0.002733      0.000200
      3.17569      7.70278      2.12661        -0.000863     -0.002733      0.000200
      0.95487      0.53974      5.83297        -0.000863      0.002733      0.000200
     10.07693      2.18409      4.06702        -0.000306     -0.001964      0.001738
     12.29775      6.05843      0.36066        -0.000306      0.001964      0.001738
      3.01341      6.30535      4.03970        -0.000306     -0.001964      0.001738
      5.23422      1.93717      0.33334        -0.000306      0.001964      0.001738
      9.41947      0.86898      3.05352         0.000002     -0.003551     -0.000141
      7.19865      7.37354      6.75988         0.000002      0.003551     -0.000141
      2.35595      4.99025      3.02620         0.000002     -0.003551     -0.000141
      0.13513      3.25227      6.73256         0.000002      0.003551     -0.000141
      8.47423      2.37256      3.26274        -0.002885     -0.001525      0.000842
      6.25342      5.86996      6.96910        -0.002885      0.001525      0.000842
      1.41071      6.49383      3.23542        -0.002885     -0.001525      0.000842
     -0.81011      1.74870      6.94178        -0.002885      0.001525      0.000842
     10.13775      2.54333      1.98888         0.002524      0.000993     -0.000763
      7.91693      5.69919      5.69524         0.002524     -0.000993     -0.000763
      3.07423      6.66459      1.96155         0.002524      0.000993     -0.000763
      0.85341      1.57793      5.66791         0.002524     -0.000993     -0.000763
 -----------------------------------------------------------------------------------
    total drift:                               -0.003994     -0.076401     -0.006836


--------------------------------------------------------------------------------------------------------



  FREE ENERGIE OF THE ION-ELECTRON SYSTEM (eV)
  ---------------------------------------------------
  free  energy   TOTEN  =      -559.73830085 eV

  energy  without entropy=     -559.73830085  energy(sigma->0) =     -559.73830085
 


--------------------------------------------------------------------------------------------------------


    POTLOK:  cpu time    0.1743: real time    0.1760


--------------------------------------------------------------------------------------------------------


     LOOP+:  cpu time 1464.6461: real time 1449.3075
    4ORBIT:  cpu time    0.0000: real time    0.0000
 


 total charge     
 
# of ion     s       p       d       tot
----------------------------------------
  1        0.356   0.353   9.905  10.615
  2        0.357   0.353   9.905  10.615
  3        0.356   0.353   9.905  10.615
  4        0.357   0.353   9.905  10.615
  5        1.570   3.570   0.000   5.140
  6        1.570   3.570   0.000   5.140
  7        1.570   3.570   0.000   5.140
  8        1.570   3.570   0.000   5.140
  9        1.568   3.568   0.000   5.136
 10        1.568   3.568   0.000   5.136
 11        1.568   3.568   0.000   5.136
 12        1.568   3.568   0.000   5.137
 13        1.569   3.567   0.000   5.137
 14        1.569   3.568   0.000   5.137
 15        1.569   3.567   0.000   5.137
 16        1.569   3.568   0.000   5.137
 17        1.570   3.568   0.000   5.138
 18        1.570   3.568   0.000   5.138
 19        1.570   3.568   0.000   5.138
 20        1.570   3.568   0.000   5.138
 21        1.568   3.568   0.000   5.135
 22        1.568   3.568   0.000   5.136
 23        1.568   3.568   0.000   5.135
 24        1.568   3.568   0.000   5.136
 25        1.569   3.569   0.000   5.138
 26        1.569   3.569   0.000   5.138
 27        1.569   3.569   0.000   5.138
 28        1.569   3.569   0.000   5.138
 29        0.843   1.780   0.000   2.623
 30        0.843   1.780   0.000   2.623
 31        0.843   1.780   0.000   2.623
 32        0.843   1.780   0.000   2.623
 33        0.874   1.707   0.000   2.581
 34        0.874   1.707   0.000   2.581
 35        0.874   1.707   0.000   2.581
 36        0.874   1.707   0.000   2.581
 37        0.874   1.710   0.000   2.583
 38        0.874   1.710   0.000   2.583
 39        0.874   1.710   0.000   2.583
 40        0.874   1.710   0.000   2.583
 41        0.875   1.705   0.000   2.580
 42        0.875   1.705   0.000   2.580
 43        0.875   1.705   0.000   2.580
 44        0.875   1.705   0.000   2.580
 45        0.842   1.782   0.000   2.624
 46        0.842   1.782   0.000   2.624
 47        0.842   1.782   0.000   2.624
 48        0.842   1.782   0.000   2.624
 49        0.645   0.047   0.000   0.692
 50        0.645   0.047   0.000   0.692
 51        0.645   0.047   0.000   0.692
 52        0.645   0.047   0.000   0.692
 53        0.647   0.048   0.000   0.695
 54        0.647   0.048   0.000   0.695
 55        0.647   0.048   0.000   0.695
 56        0.647   0.048   0.000   0.695
 57        0.643   0.048   0.000   0.691
 58        0.643   0.048   0.000   0.691
 59        0.643   0.048   0.000   0.691
 60        0.643   0.048   0.000   0.691
 61        0.639   0.045   0.000   0.684
 62        0.639   0.045   0.000   0.684
 63        0.639   0.045   0.000   0.684
 64        0.639   0.045   0.000   0.684
 65        0.644   0.045   0.000   0.689
 66        0.644   0.045   0.000   0.689
 67        0.644   0.045   0.000   0.689
 68        0.644   0.045   0.000   0.689
 69        0.640   0.046   0.000   0.686
 70        0.640   0.046   0.000   0.686
 71        0.640   0.046   0.000   0.686
 72        0.640   0.046   0.000   0.686
 73        0.585   0.088   0.000   0.673
 74        0.585   0.088   0.000   0.673
 75        0.585   0.088   0.000   0.673
 76        0.585   0.088   0.000   0.673
 77        0.585   0.088   0.000   0.672
 78        0.585   0.088   0.000   0.672
 79        0.585   0.088   0.000   0.672
 80        0.585   0.088   0.000   0.672
 81        0.642   0.049   0.000   0.691
 82        0.642   0.049   0.000   0.691
 83        0.642   0.049   0.000   0.691
 84        0.642   0.049   0.000   0.691
 85        0.645   0.047   0.000   0.692
 86        0.645   0.047   0.000   0.692
 87        0.645   0.047   0.000   0.692
 88        0.645   0.047   0.000   0.692
 89        0.644   0.048   0.000   0.692
 90        0.644   0.048   0.000   0.692
 91        0.644   0.048   0.000   0.692
 92        0.644   0.048   0.000   0.692
 93        1.210   2.736   0.000   3.946
 94        1.210   2.736   0.000   3.946
 95        1.210   2.736   0.000   3.946
 96        1.210   2.736   0.000   3.946
------------------------------------------------
tot       88.990 135.121  39.620 263.731
 


 magnetization (x)
 
# of ion     s       p       d       tot
----------------------------------------
  1        0.000   0.000  -0.000   0.000
  2        0.000   0.000   0.000   0.000
  3        0.000   0.000  -0.000  -0.000
  4        0.000   0.000  -0.000   0.000
  5        0.000  -0.000   0.000  -0.000
  6        0.000  -0.000   0.000  -0.000
  7        0.000  -0.000   0.000  -0.000
  8        0.000  -0.000   0.000  -0.000
  9       -0.000  -0.000   0.000  -0.000
 10       -0.000  -0.000   0.000  -0.000
 11       -0.000  -0.000   0.000  -0.000
 12        0.000  -0.000   0.000  -0.000
 13        0.000   0.000   0.000   0.000
 14        0.000   0.000   0.000   0.000
 15        0.000   0.000   0.000   0.000
 16        0.000   0.000   0.000   0.000
 17        0.000  -0.000   0.000  -0.000
 18        0.000  -0.000   0.000  -0.000
 19        0.000  -0.000   0.000  -0.000
 20        0.000  -0.000   0.000  -0.000
 21        0.000   0.000   0.000   0.000
 22        0.000   0.000   0.000   0.000
 23        0.000   0.000   0.000   0.000
 24        0.000   0.000   0.000   0.000
 25       -0.000   0.000   0.000   0.000
 26       -0.000   0.000   0.000   0.000
 27        0.000   0.000   0.000   0.000
 28       -0.000   0.000   0.000   0.000
 29        0.000  -0.000   0.000  -0.000
 30       -0.000  -0.000   0.000  -0.000
 31        0.000  -0.000   0.000  -0.000
 32       -0.000  -0.000   0.000  -0.000
 33       -0.000  -0.000   0.000  -0.000
 34       -0.000  -0.000   0.000  -0.000
 35       -0.000  -0.000   0.000  -0.000
 36       -0.000  -0.000   0.000  -0.000
 37        0.000   0.000   0.000   0.000
 38        0.000   0.000   0.000   0.000
 39        0.000   0.000   0.000   0.000
 40        0.000   0.000   0.000   0.000
 41       -0.000  -0.000   0.000  -0.000
 42       -0.000  -0.000   0.000  -0.000
 43       -0.000  -0.000   0.000  -0.000
 44       -0.000  -0.000   0.000  -0.000
 45        0.000   0.000   0.000   0.000
 46        0.000   0.000   0.000   0.000
 47        0.000   0.000   0.000   0.000
 48        0.000   0.000   0.000   0.000
 49        0.000  -0.000   0.000   0.000
 50        0.000  -0.000   0.000   0.000
 51        0.000  -0.000   0.000   0.000
 52        0.000  -0.000   0.000   0.000
 53        0.000  -0.000   0.000   0.000
 54        0.000  -0.000   0.000   0.000
 55        0.000  -0.000   0.000   0.000
 56        0.000  -0.000   0.000   0.000
 57        0.000  -0.000   0.000   0.000
 58        0.000  -0.000   0.000   0.000
 59        0.000  -0.000   0.000   0.000
 60        0.000  -0.000   0.000   0.000
 61        0.000  -0.000   0.000   0.000
 62        0.000  -0.000   0.000   0.000
 63        0.000  -0.000   0.000   0.000
 64        0.000  -0.000   0.000   0.000
 65        0.000   0.000   0.000   0.000
 66        0.000   0.000   0.000   0.000
 67        0.000   0.000   0.000   0.000
 68        0.000   0.000   0.000   0.000
 69        0.000  -0.000   0.000   0.000
 70        0.000  -0.000   0.000   0.000
 71        0.000  -0.000   0.000   0.000
 72        0.000  -0.000   0.000   0.000
 73       -0.000  -0.000   0.000  -0.000
 74       -0.000  -0.000   0.000  -0.000
 75       -0.000  -0.000   0.000  -0.000
 76        0.000  -0.000   0.000   0.000
 77       -0.000  -0.000   0.000  -0.000
 78       -0.000  -0.000   0.000  -0.000
 79       -0.000  -0.000   0.000  -0.000
 80       -0.000  -0.000   0.000  -0.000
 81        0.000   0.000   0.000   0.000
 82        0.000   0.000   0.000   0.000
 83        0.000   0.000   0.000   0.000
 84        0.000   0.000   0.000   0.000
 85        0.000   0.000   0.000   0.000
 86        0.000   0.000   0.000   0.000
 87        0.000   0.000   0.000   0.000
 88        0.000   0.000   0.000   0.000
 89       -0.000   0.000   0.000  -0.000
 90       -0.000   0.000   0.000  -0.000
 91       -0.000   0.000   0.000  -0.000
 92       -0.000   0.000   0.000  -0.000
 93        0.000  -0.000   0.000  -0.000
 94        0.000  -0.000   0.000  -0.000
 95        0.000  -0.000   0.000  -0.000
 96        0.000  -0.000   0.000  -0.000
------------------------------------------------
tot        0.000  -0.000  -0.000   0.000
 

 total amount of memory used by VASP on root node   555887. kBytes
========================================================================

   base      :      30000. kBytes
   nonl-proj :     370732. kBytes
   fftplans  :       4320. kBytes
   grid      :      62252. kBytes
   one-center:       2985. kBytes
   wavefun   :      85598. kBytes
 
  
  
 General timing and accounting informations for this job:
 ========================================================
  
                  Total CPU time used (sec):     1500.215
                            User time (sec):     1482.210
                          System time (sec):       18.005
                         Elapsed time (sec):     1485.317
  
                   Maximum memory used (kb):      813736.
                   Average memory used (kb):           0.
  
                          Minor page faults:      1895654
                          Major page faults:            0
                 Voluntary context switches:      1535228
