 vasp.6.2.1 16May21 (build Oct 06 2021 15:23:54) complex                        
  
 executed on     Narwhal-SCI@Navy date 2021.10.18  14:46:35
 running  128 mpi-ranks, with    1 threads/rank
 distrk:  each k-point on   64 cores,    2 groups
 distr:  one band on NCORE=   1 cores,   64 groups


--------------------------------------------------------------------------------------------------------


 INCAR:
   IVDW = 11           (DFT-D3 method of method with no damping)
   ISPIN = 2 (Spin polarised DFT)
   MAGMOM = 10 -10 -10 10 84*0.0d0
   ISTART = 1            (Read existing wavefunction
   ICHARG = 11         (Non-self-consistent: GGA/LDA band structures)
   LORBIT = 11
   LASPH = T
   GGA_COMPAT = .FALSE.
   LREAL = .FALSE.       (Projection operators: automatic)
   ENCUT = 708
   ENAUG = 708
   PREC = Accurate     (Precision level)
   LMAXMIX = 4
   ADDGRID = .TRUE.        (Increase grid
   LPLANE = .TRUE.      (Real space distribution
   NWRITE = 2           (Medium-level output)
   KPAR = 2           (Divides k-grid into separate groups)
   NSW = 00          (number of ionic steps)
   ISMEAR = 0            (gaussian smearing method )
   SIGMA = 0.05         (please check the width of the smearing)
   IBRION = -1           (Algorithm: 0-MD
   ISIF = 3            (optimize atomic coordinates and lattice parameters)
   EDIFFG = -0.005       (Ionic convergence
   EDIFF = 1.0d-10
   DAU = .TRUE.
   LDAUTYPE = 2
   LDAUL = 2 -1 -1       -1  -1
   LDAUU = 4.6 0.00 0.00  0.00 0.0
   LDAUJ = 0.00 0.00 0.00 0.00 0.0
   LDAUPRINT = 2
   LCALCPOL = T

 POTCAR:    PAW_PBE Co 02Aug2007                  
 POTCAR:    PAW_PBE N 08Apr2002                   
 POTCAR:    PAW_PBE C 08Apr2002                   
 POTCAR:    PAW_PBE H 15Jun2001                   
 POTCAR:    PAW_PBE O 08Apr2002                   
 POTCAR:    PAW_PBE Co 02Aug2007                  
   SHA256 =  0e690c60710354995174544f52f9f2c30879afabeffe3b3fbd4001cb294e56d4 Co/POTCAR             
   COPYR  = (c) Copyright 02Aug2007 Georg Kresse                                                    
   COPYR  = This file is part of the software VASP. Any use, copying, and all other rights are regul
   COPYR  = If you do not have a valid VASP license, you may not use, copy or distribute this file. 
   VRHFIN =Co: d8 s1                                                                                
   LEXCH  = PE                                                                                      
   EATOM  =   813.3670 eV,   59.7808 Ry                                                             
                                                                                                    
   TITEL  = PAW_PBE Co 02Aug2007                                                                    
   LULTRA =        F    use ultrasoft PP ?                                                          
   IUNSCR =        1    unscreen: 0-lin 1-nonlin 2-no                                               
   RPACOR =    2.000    partial core radius                                                         
   POMASS =   58.933; ZVAL   =    9.000    mass and valenz                                          
   RCORE  =    2.300    outmost cutoff radius                                                       
   RWIGS  =    2.460; RWIGS  =    1.302    wigner-seitz radius (au A)                               
   ENMAX  =  267.968; ENMIN  =  200.976 eV                                                          
   RCLOC  =    1.203    cutoff for local pot                                                        
   LCOR   =        T    correct aug charges                                                         
   LPAW   =        T    paw PP                                                                      
   EAUG   =  477.818                                                                                
   DEXC   =    0.000                                                                                
   RMAX   =    2.360    core radius for proj-oper                                                   
   RAUG   =    1.300    factor for augmentation sphere                                              
   RDEP   =    2.393    radius for radial grids                                                     
   RDEPT  =    1.864    core radius for aug-charge                                                  
                                                                                                    
   Atomic configuration                                                                             
    9 entries                                                                                       
     n  l   j            E        occ.                                                              
     1  0  0.50     -7587.6674   2.0000                                                             
     2  0  0.50      -893.6084   2.0000                                                             
     2  1  1.50      -764.5805   6.0000                                                             
     3  0  0.50       -97.5973   2.0000                                                             
     3  1  1.50       -60.9648   6.0000                                                             
     3  2  2.50        -4.2382   8.0000                                                             
     4  0  0.50        -4.3746   1.0000                                                             
     4  1  1.50        -4.0817   0.0000                                                             
     4  3  2.50        -1.3606   0.0000                                                             
   Description                                                                                      
     l       E           TYP  RCUT    TYP  RCUT                                                     
     2     -4.2382362     23  2.300                                                                 
     2     -5.5988188     23  2.300                                                                 
     0     -4.3745797     23  2.300                                                                 
     0      5.7660125     23  2.300                                                                 
     1     -2.7211652     23  2.300                                                                 
     1     16.9860234     23  2.300                                                                 
  local pseudopotential read in
  partial core-charges read in
  partial kinetic energy density read in
  atomic valenz-charges read in
  non local Contribution for L=           2  read in
    real space projection operators read in
  non local Contribution for L=           2  read in
    real space projection operators read in
  non local Contribution for L=           0  read in
    real space projection operators read in
  non local Contribution for L=           0  read in
    real space projection operators read in
  non local Contribution for L=           1  read in
    real space projection operators read in
  non local Contribution for L=           1  read in
    real space projection operators read in
    PAW grid and wavefunctions read in
 
   number of l-projection  operators is LMAX  =           6
   number of lm-projection operators is LMMAX =          18
 
 POTCAR:    PAW_PBE N 08Apr2002                   
   SHA256 =  e053789ff3a61a86a1b75d8a110fcc91f86041011e7b0817c7c99e4e8a6349d7 N/POTCAR              
   COPYR  = (c) Copyright 08Apr2002 Georg Kresse                                                    
   COPYR  = This file is part of the software VASP. Any use, copying, and all other rights are regul
   COPYR  = If you do not have a valid VASP license, you may not use, copy or distribute this file. 
   VRHFIN =N: s2p3                                                                                  
   LEXCH  = PE                                                                                      
   EATOM  =   264.5486 eV,   19.4438 Ry                                                             
                                                                                                    
   TITEL  = PAW_PBE N 08Apr2002                                                                     
   LULTRA =        F    use ultrasoft PP ?                                                          
   IUNSCR =        1    unscreen: 0-lin 1-nonlin 2-no                                               
   RPACOR =    1.200    partial core radius                                                         
   POMASS =   14.001; ZVAL   =    5.000    mass and valenz                                          
   RCORE  =    1.500    outmost cutoff radius                                                       
   RWIGS  =    1.400; RWIGS  =    0.741    wigner-seitz radius (au A)                               
   ENMAX  =  400.000; ENMIN  =  300.000 eV                                                          
   ICORE  =        2    local potential                                                             
   LCOR   =        T    correct aug charges                                                         
   LPAW   =        T    paw PP                                                                      
   EAUG   =  627.112                                                                                
   DEXC   =    0.000                                                                                
   RMAX   =    1.529    core radius for proj-oper                                                   
   RAUG   =    1.300    factor for augmentation sphere                                              
   RDEP   =    1.514    radius for radial grids                                                     
   RDEPT  =    1.338    core radius for aug-charge                                                  
                                                                                                    
   Atomic configuration                                                                             
    4 entries                                                                                       
     n  l   j            E        occ.                                                              
     1  0  0.50      -384.7179   2.0000                                                             
     2  0  0.50       -18.5828   2.0000                                                             
     2  1  0.50        -7.0898   3.0000                                                             
     3  2  1.50        -6.8029   0.0000                                                             
   Description                                                                                      
     l       E           TYP  RCUT    TYP  RCUT                                                     
     0    -18.5828119     23  1.200                                                                 
     0    -13.5018863     23  1.200                                                                 
     1     -7.0897853     23  1.500                                                                 
     1      9.5240782     23  1.500                                                                 
     2     -6.8029130      7  1.500                                                                 
  local pseudopotential read in
  partial core-charges read in
  partial kinetic energy density read in
  atomic valenz-charges read in
  non local Contribution for L=           0  read in
    real space projection operators read in
  non local Contribution for L=           0  read in
    real space projection operators read in
  non local Contribution for L=           1  read in
    real space projection operators read in
  non local Contribution for L=           1  read in
    real space projection operators read in
    PAW grid and wavefunctions read in
 
   number of l-projection  operators is LMAX  =           4
   number of lm-projection operators is LMMAX =           8
 
 POTCAR:    PAW_PBE C 08Apr2002                   
   SHA256 =  253f7b50bb8d59471dbedb8285d89021f4a42ed1a2c5d38a03a736e69125dd95 C/POTCAR              
   COPYR  = (c) Copyright 08Apr2002 Georg Kresse                                                    
   COPYR  = This file is part of the software VASP. Any use, copying, and all other rights are regul
   COPYR  = If you do not have a valid VASP license, you may not use, copy or distribute this file. 
   VRHFIN =C: s2p2                                                                                  
   LEXCH  = PE                                                                                      
   EATOM  =   147.1560 eV,   10.8157 Ry                                                             
                                                                                                    
   TITEL  = PAW_PBE C 08Apr2002                                                                     
   LULTRA =        F    use ultrasoft PP ?                                                          
   IUNSCR =        1    unscreen: 0-lin 1-nonlin 2-no                                               
   RPACOR =    1.200    partial core radius                                                         
   POMASS =   12.011; ZVAL   =    4.000    mass and valenz                                          
   RCORE  =    1.500    outmost cutoff radius                                                       
   RWIGS  =    1.630; RWIGS  =    0.863    wigner-seitz radius (au A)                               
   ENMAX  =  400.000; ENMIN  =  300.000 eV                                                          
   ICORE  =        2    local potential                                                             
   LCOR   =        T    correct aug charges                                                         
   LPAW   =        T    paw PP                                                                      
   EAUG   =  644.873                                                                                
   DEXC   =    0.000                                                                                
   RMAX   =    1.529    core radius for proj-oper                                                   
   RAUG   =    1.300    factor for augmentation sphere                                              
   RDEP   =    1.501    radius for radial grids                                                     
   RDEPT  =    1.300    core radius for aug-charge                                                  
                                                                                                    
   Atomic configuration                                                                             
    4 entries                                                                                       
     n  l   j            E        occ.                                                              
     1  0  0.50      -273.3789   2.0000                                                             
     2  0  0.50       -13.7508   2.0000                                                             
     2  1  0.50        -5.2854   2.0000                                                             
     3  2  1.50        -5.4423   0.0000                                                             
   Description                                                                                      
     l       E           TYP  RCUT    TYP  RCUT                                                     
     0    -13.7508458     23  1.200                                                                 
     0     -8.2022199     23  1.200                                                                 
     1     -5.2854383     23  1.500                                                                 
     1     34.0145650     23  1.500                                                                 
     2     -5.4423304      7  1.500                                                                 
  local pseudopotential read in
  partial core-charges read in
  partial kinetic energy density read in
  atomic valenz-charges read in
  non local Contribution for L=           0  read in
    real space projection operators read in
  non local Contribution for L=           0  read in
    real space projection operators read in
  non local Contribution for L=           1  read in
    real space projection operators read in
  non local Contribution for L=           1  read in
    real space projection operators read in
    PAW grid and wavefunctions read in
 
   number of l-projection  operators is LMAX  =           4
   number of lm-projection operators is LMMAX =           8
 
 POTCAR:    PAW_PBE H 15Jun2001                   
   SHA256 =  030f79b5d3ab3cf0e668861823c8fb652ff669f3e15e46930bd03bfd63a607b6 H/POTCAR              
   COPYR  = (c) Copyright 15Jun2001 Georg Kresse                                                    
   COPYR  = This file is part of the software VASP. Any use, copying, and all other rights are regul
   COPYR  = If you do not have a valid VASP license, you may not use, copy or distribute this file. 
   VRHFIN =H: ultrasoft test                                                                        
   LEXCH  = PE                                                                                      
   EATOM  =    12.4884 eV,    0.9179 Ry                                                             
                                                                                                    
   TITEL  = PAW_PBE H 15Jun2001                                                                     
   LULTRA =        F    use ultrasoft PP ?                                                          
   IUNSCR =        0    unscreen: 0-lin 1-nonlin 2-no                                               
   RPACOR =    0.000    partial core radius                                                         
   POMASS =    1.000; ZVAL   =    1.000    mass and valenz                                          
   RCORE  =    1.100    outmost cutoff radius                                                       
   RWIGS  =    0.700; RWIGS  =    0.370    wigner-seitz radius (au A)                               
   ENMAX  =  250.000; ENMIN  =  200.000 eV                                                          
   RCLOC  =    0.701    cutoff for local pot                                                        
   LCOR   =        T    correct aug charges                                                         
   LPAW   =        T    paw PP                                                                      
   EAUG   =  400.000                                                                                
   RMAX   =    1.123    core radius for proj-oper                                                   
   RAUG   =    1.200    factor for augmentation sphere                                              
   RDEP   =    1.112    radius for radial grids                                                     
   RDEPT  =    0.926    core radius for aug-charge                                                  
                                                                                                    
   Atomic configuration                                                                             
    2 entries                                                                                       
     n  l   j            E        occ.                                                              
     1  0  0.50        -6.4927   1.0000                                                             
     2  1  0.50        -3.4015   0.0000                                                             
   Description                                                                                      
     l       E           TYP  RCUT    TYP  RCUT                                                     
     0     -6.4927494     23  1.100                                                                 
     0      6.8029130     23  1.100                                                                 
     1     -4.0817478     23  1.100                                                                 
  local pseudopotential read in
  atomic valenz-charges read in
  non local Contribution for L=           0  read in
    real space projection operators read in
  non local Contribution for L=           0  read in
    real space projection operators read in
  non local Contribution for L=           1  read in
    real space projection operators read in
    PAW grid and wavefunctions read in
 
   number of l-projection  operators is LMAX  =           3
   number of lm-projection operators is LMMAX =           5
 
 POTCAR:    PAW_PBE O 08Apr2002                   
   SHA256 =  818f92134a0a090dccd8ba1447fa70422a3b330e708bb4f08108d8ae51209ddf O/POTCAR              
   COPYR  = (c) Copyright 08Apr2002 Georg Kresse                                                    
   COPYR  = This file is part of the software VASP. Any use, copying, and all other rights are regul
   COPYR  = If you do not have a valid VASP license, you may not use, copy or distribute this file. 
   VRHFIN =O: s2p4                                                                                  
   LEXCH  = PE                                                                                      
   EATOM  =   432.3788 eV,   31.7789 Ry                                                             
                                                                                                    
   TITEL  = PAW_PBE O 08Apr2002                                                                     
   LULTRA =        F    use ultrasoft PP ?                                                          
   IUNSCR =        1    unscreen: 0-lin 1-nonlin 2-no                                               
   RPACOR =    1.200    partial core radius                                                         
   POMASS =   16.000; ZVAL   =    6.000    mass and valenz                                          
   RCORE  =    1.520    outmost cutoff radius                                                       
   RWIGS  =    1.550; RWIGS  =    0.820    wigner-seitz radius (au A)                               
   ENMAX  =  400.000; ENMIN  =  300.000 eV                                                          
   ICORE  =        2    local potential                                                             
   LCOR   =        T    correct aug charges                                                         
   LPAW   =        T    paw PP                                                                      
   EAUG   =  605.392                                                                                
   DEXC   =    0.000                                                                                
   RMAX   =    1.553    core radius for proj-oper                                                   
   RAUG   =    1.300    factor for augmentation sphere                                              
   RDEP   =    1.550    radius for radial grids                                                     
   RDEPT  =    1.329    core radius for aug-charge                                                  
                                                                                                    
   Atomic configuration                                                                             
    4 entries                                                                                       
     n  l   j            E        occ.                                                              
     1  0  0.50      -514.6923   2.0000                                                             
     2  0  0.50       -23.9615   2.0000                                                             
     2  1  0.50        -9.0305   4.0000                                                             
     3  2  1.50        -9.5241   0.0000                                                             
   Description                                                                                      
     l       E           TYP  RCUT    TYP  RCUT                                                     
     0    -23.9615318     23  1.200                                                                 
     0     -9.5240782     23  1.200                                                                 
     1     -9.0304911     23  1.520                                                                 
     1      8.1634956     23  1.520                                                                 
     2     -9.5240782      7  1.500                                                                 
  local pseudopotential read in
  partial core-charges read in
  partial kinetic energy density read in
  kinetic energy density of atom read in
  atomic valenz-charges read in
  non local Contribution for L=           0  read in
    real space projection operators read in
  non local Contribution for L=           0  read in
    real space projection operators read in
  non local Contribution for L=           1  read in
    real space projection operators read in
  non local Contribution for L=           1  read in
    real space projection operators read in
    PAW grid and wavefunctions read in
 
   number of l-projection  operators is LMAX  =           4
   number of lm-projection operators is LMMAX =           8
 
 -----------------------------------------------------------------------------
|                                                                             |
|               ----> ADVICE to this user running VASP <----                  |
|                                                                             |
|     You have a (more or less) 'large supercell' and for larger cells it     |
|     might be more efficient to use real-space projection operators.         |
|     Therefore, try LREAL= Auto in the INCAR file.                           |
|     Mind: For very accurate calculation, you might also keep the            |
|     reciprocal projection scheme (i.e. LREAL=.FALSE.).                      |
|                                                                             |
 -----------------------------------------------------------------------------

  PAW_PBE Co 02Aug2007                  :
 energy of atom  1       EATOM= -813.3670
 kinetic energy error for atom=    0.0006 (will be added to EATOM!!)
  PAW_PBE N 08Apr2002                   :
 energy of atom  2       EATOM= -264.5486
 kinetic energy error for atom=    0.0057 (will be added to EATOM!!)
  PAW_PBE C 08Apr2002                   :
 energy of atom  3       EATOM= -147.1560
 kinetic energy error for atom=    0.0031 (will be added to EATOM!!)
  PAW_PBE H 15Jun2001                   :
 energy of atom  4       EATOM=  -12.4884
 kinetic energy error for atom=    0.0002 (will be added to EATOM!!)
  PAW_PBE O 08Apr2002                   :
 energy of atom  5       EATOM= -432.3788
 kinetic energy error for atom=    0.0085 (will be added to EATOM!!)
 
 
 POSCAR: crystal
  positions in direct lattice
  velocities in cartesian coordinates
 exchange correlation table for  LEXCH =        8
   RHO(1)=    0.500       N(1)  =     2000
   RHO(2)=  100.500       N(2)  =     4000
 


--------------------------------------------------------------------------------------------------------


 ion  position               nearest neighbor table
   1  0.500  0.500  0.500-  61 2.09  65 2.09  77 2.10  81 2.10  70 2.13  74 2.13
   2  0.000  0.500  0.000-  62 2.09  66 2.09  78 2.10  82 2.10  69 2.13  73 2.13
   3  0.500  0.000  0.500-  63 2.09  67 2.09  79 2.10  83 2.10  72 2.13  76 2.13
   4  0.000  0.000  0.000-  64 2.09  68 2.09  80 2.10  84 2.10  71 2.13  75 2.13
   5  0.584  0.750  0.031-  41 1.03  31 1.05  25 1.05   9 1.48
   6  0.916  0.250  0.531-  42 1.03  32 1.05  26 1.05  10 1.48
   7  0.416  0.250  0.969-  43 1.03  29 1.05  27 1.05  11 1.48
   8  0.084  0.750  0.469-  44 1.03  30 1.05  28 1.05  12 1.48
   9  0.411  0.750  0.973-  45 1.09  39 1.09  33 1.09   5 1.48
  10  0.089  0.250  0.473-  46 1.09  40 1.09  34 1.09   6 1.48
  11  0.589  0.250  0.027-  47 1.09  37 1.09  35 1.09   7 1.48
  12  0.911  0.750  0.527-  48 1.09  38 1.09  36 1.09   8 1.48
  13  0.507  0.750  0.443-  57 1.10  77 1.27  83 1.27
  14  0.993  0.250  0.943-  58 1.10  78 1.27  84 1.27
  15  0.493  0.250  0.557-  59 1.10  79 1.27  81 1.27
  16  0.007  0.750  0.057-  60 1.10  80 1.27  82 1.27
  17  0.285  0.470  0.219-  49 1.10  61 1.26  69 1.28
  18  0.215  0.530  0.719-  50 1.10  62 1.26  70 1.28
  19  0.715  0.970  0.781-  51 1.10  63 1.26  71 1.28
  20  0.785  0.030  0.281-  52 1.10  64 1.26  72 1.28
  21  0.715  0.530  0.781-  53 1.10  65 1.26  73 1.28
  22  0.785  0.470  0.281-  54 1.10  66 1.26  74 1.28
  23  0.285  0.030  0.219-  55 1.10  67 1.26  75 1.28
  24  0.215  0.970  0.719-  56 1.10  68 1.26  76 1.28
  25  0.648  0.677  0.990-   5 1.05
  26  0.852  0.323  0.490-   6 1.05
  27  0.352  0.177  0.010-   7 1.05
  28  0.148  0.823  0.510-   8 1.05
  29  0.352  0.323  0.010-   7 1.05
  30  0.148  0.677  0.510-   8 1.05
  31  0.648  0.823  0.990-   5 1.05
  32  0.852  0.177  0.490-   6 1.05
  33  0.349  0.673  0.018-   9 1.09
  34  0.151  0.327  0.518-  10 1.09
  35  0.651  0.173  0.982-  11 1.09
  36  0.849  0.827  0.482-  12 1.09
  37  0.651  0.327  0.982-  11 1.09
  38  0.849  0.673  0.482-  12 1.09
  39  0.349  0.827  0.018-   9 1.09
  40  0.151  0.173  0.518-  10 1.09
  41  0.585  0.750  0.157-   5 1.03
  42  0.915  0.250  0.657-   6 1.03
  43  0.415  0.250  0.843-   7 1.03
  44  0.085  0.750  0.343-   8 1.03
  45  0.412  0.750  0.842-   9 1.09
  46  0.088  0.250  0.342-  10 1.09
  47  0.588  0.250  0.158-  11 1.09
  48  0.912  0.750  0.658-  12 1.09
  49  0.214  0.537  0.282-  17 1.10
  50  0.286  0.463  0.782-  18 1.10
  51  0.786  0.037  0.718-  19 1.10
  52  0.714  0.963  0.218-  20 1.10
  53  0.786  0.463  0.718-  21 1.10
  54  0.714  0.537  0.218-  22 1.10
  55  0.214  0.963  0.282-  23 1.10
  56  0.286  0.037  0.782-  24 1.10
  57  0.481  0.750  0.574-  13 1.10
  58  0.019  0.250  0.074-  14 1.10
  59  0.519  0.250  0.426-  15 1.10
  60  0.981  0.750  0.926-  16 1.10
  61  0.409  0.426  0.288-  17 1.26   1 2.09
  62  0.091  0.574  0.788-  18 1.26   2 2.09
  63  0.591  0.926  0.712-  19 1.26   3 2.09
  64  0.909  0.074  0.212-  20 1.26   4 2.09
  65  0.591  0.574  0.712-  21 1.26   1 2.09
  66  0.909  0.426  0.212-  22 1.26   2 2.09
  67  0.409  0.074  0.288-  23 1.26   3 2.09
  68  0.091  0.926  0.788-  24 1.26   4 2.09
  69  0.235  0.441  0.078-  17 1.28   2 2.13
  70  0.265  0.559  0.578-  18 1.28   1 2.13
  71  0.765  0.941  0.922-  19 1.28   4 2.13
  72  0.735  0.059  0.422-  20 1.28   3 2.13
  73  0.765  0.559  0.922-  21 1.28   2 2.13
  74  0.735  0.441  0.422-  22 1.28   1 2.13
  75  0.235  0.059  0.078-  23 1.28   4 2.13
  76  0.265  0.941  0.578-  24 1.28   3 2.13
  77  0.522  0.654  0.371-  13 1.27   1 2.10
  78  0.978  0.346  0.871-  14 1.27   2 2.10
  79  0.478  0.154  0.629-  15 1.27   3 2.10
  80  0.022  0.846  0.129-  16 1.27   4 2.10
  81  0.478  0.346  0.629-  15 1.27   1 2.10
  82  0.022  0.654  0.129-  16 1.27   2 2.10
  83  0.522  0.846  0.371-  13 1.27   3 2.10
  84  0.978  0.154  0.871-  14 1.27   4 2.10
 
  LATTYP: Found a simple orthorhombic cell.
 ALAT       =     8.1198788468
 B/A-ratio  =     1.0192334743
 C/A-ratio  =     1.4340104397
  
  Lattice vectors:
  
 A1 = (  -8.1198788468,   0.0000000000,   0.0000000000)
 A2 = (   0.0000000000,   0.0000000000,   8.2760523279)
 A3 = (   0.0000000000,  11.6439910356,   0.0000000000)


Analysis of symmetry for initial positions (statically):
=====================================================================
 Subroutine PRICEL returns:
 Original cell was already a primitive cell.
 

 Routine SETGRP: Setting up the symmetry group for a 
 simple orthorhombic supercell.


 Subroutine GETGRP returns: Found  8 space group operations
 (whereof  2 operations were pure point group operations)
 out of a pool of  8 trial point group operations.


The static configuration has the point symmetry S_2 .
 The point group associated with its full space group is D_2h.


Analysis of symmetry for dynamics (positions and initial velocities):
=====================================================================
 Subroutine PRICEL returns:
 Original cell was already a primitive cell.
 

 Routine SETGRP: Setting up the symmetry group for a 
 simple orthorhombic supercell.


 Subroutine GETGRP returns: Found  8 space group operations
 (whereof  2 operations were pure point group operations)
 out of a pool of  8 trial point group operations.


The dynamic configuration has the point symmetry S_2 .
 The point group associated with its full space group is D_2h.


Analysis of structural, dynamic, and magnetic symmetry:
=====================================================================
 Subroutine PRICEL returns:
 Original cell was already a primitive cell.
 

 Routine SETGRP: Setting up the symmetry group for a 
 simple orthorhombic supercell.


 Subroutine GETGRP returns: Found  8 space group operations
 (whereof  2 operations were pure point group operations)
 out of a pool of  8 trial point group operations.


The overall configuration has the point symmetry S_2 .
 The point group associated with its full space group is D_2h.


 Subroutine INISYM returns: Found  8 space group operations
 (whereof  2 operations are pure point group operations),
 and found     1 'primitive' translations


----------------------------------------------------------------------------------------

                                     Primitive cell                                     

  volume of cell :     782.4825

  direct lattice vectors                    reciprocal lattice vectors
     8.119878847  0.000000000  0.000000000     0.123154547  0.000000000  0.000000000
     0.000000000 11.643991036  0.000000000     0.000000000  0.085881207  0.000000000
     0.000000000  0.000000000  8.276052328     0.000000000  0.000000000  0.120830555

  length of vectors
     8.119878847 11.643991036  8.276052328     0.123154547  0.085881207  0.120830555

  position of ions in fractional coordinates (direct lattice)
     0.500000000  0.500000000  0.500000000
     0.000000000  0.500000000  0.000000000
     0.500000000  0.000000000  0.500000000
     0.000000000  0.000000000  0.000000000
     0.584438972  0.750000000  0.031482648
     0.915561028  0.250000000  0.531482648
     0.415561028  0.250000000  0.968517352
     0.084438972  0.750000000  0.468517352
     0.411490661  0.750000000  0.973443532
     0.088509339  0.250000000  0.473443532
     0.588509339  0.250000000  0.026556468
     0.911490661  0.750000000  0.526556468
     0.506633059  0.750000000  0.443466908
     0.993366941  0.250000000  0.943466908
     0.493366941  0.250000000  0.556533092
     0.006633059  0.750000000  0.056533092
     0.284628529  0.470145621  0.219257769
     0.215371471  0.529854379  0.719257769
     0.715371471  0.970145621  0.780742231
     0.784628529  0.029854379  0.280742231
     0.715371471  0.529854379  0.780742231
     0.784628529  0.470145621  0.280742231
     0.284628529  0.029854379  0.219257769
     0.215371471  0.970145621  0.719257769
     0.648097717  0.676809431  0.990299162
     0.851902283  0.323190569  0.490299162
     0.351902283  0.176809431  0.009700838
     0.148097717  0.823190569  0.509700838
     0.351902283  0.323190569  0.009700838
     0.148097717  0.676809431  0.509700838
     0.648097717  0.823190569  0.990299162
     0.851902283  0.176809431  0.490299162
     0.349151843  0.673060352  0.018172067
     0.150848157  0.326939648  0.518172067
     0.650848157  0.173060352  0.981827933
     0.849151843  0.826939648  0.481827933
     0.650848157  0.326939648  0.981827933
     0.849151843  0.673060352  0.481827933
     0.349151843  0.826939648  0.018172067
     0.150848157  0.173060352  0.518172067
     0.584948504  0.750000000  0.156528964
     0.915051496  0.250000000  0.656528964
     0.415051496  0.250000000  0.843471036
     0.084948504  0.750000000  0.343471036
     0.411578042  0.750000000  0.841581898
     0.088421958  0.250000000  0.341581898
     0.588421958  0.250000000  0.158418102
     0.911578042  0.750000000  0.658418102
     0.213532560  0.537216464  0.282412528
     0.286467440  0.462783536  0.782412528
     0.786467440  0.037216464  0.717587472
     0.713532560  0.962783536  0.217587472
     0.786467440  0.462783536  0.717587472
     0.713532560  0.537216464  0.217587472
     0.213532560  0.962783536  0.282412528
     0.286467440  0.037216464  0.782412528
     0.480501257  0.750000000  0.574428121
     0.019498743  0.250000000  0.074428121
     0.519498743  0.250000000  0.425571879
     0.980501257  0.750000000  0.925571879
     0.408686886  0.426457859  0.287992768
     0.091313114  0.573542141  0.787992768
     0.591313114  0.926457859  0.712007232
     0.908686886  0.073542141  0.212007232
     0.591313114  0.573542141  0.712007232
     0.908686886  0.426457859  0.212007232
     0.408686886  0.073542141  0.287992768
     0.091313114  0.926457859  0.787992768
     0.235149964  0.440707846  0.078455342
     0.264850036  0.559292154  0.578455342
     0.764850036  0.940707846  0.921544658
     0.735149964  0.059292154  0.421544658
     0.764850036  0.559292154  0.921544658
     0.735149964  0.440707846  0.421544658
     0.235149964  0.059292154  0.078455342
     0.264850036  0.940707846  0.578455342
     0.522069925  0.654256581  0.371226187
     0.977930075  0.345743419  0.871226187
     0.477930075  0.154256581  0.628773813
     0.022069925  0.845743419  0.128773813
     0.477930075  0.345743419  0.628773813
     0.022069925  0.654256581  0.128773813
     0.522069925  0.845743419  0.371226187
     0.977930075  0.154256581  0.871226187

  ion indices of the primitive-cell ions
   primitive index   ion index
                 1           1
                 2           2
                 3           3
                 4           4
                 5           5
                 6           6
                 7           7
                 8           8
                 9           9
                10          10
                11          11
                12          12
                13          13
                14          14
                15          15
                16          16
                17          17
                18          18
                19          19
                20          20
                21          21
                22          22
                23          23
                24          24
                25          25
                26          26
                27          27
                28          28
                29          29
                30          30
                31          31
                32          32
                33          33
                34          34
                35          35
                36          36
                37          37
                38          38
                39          39
                40          40
                41          41
                42          42
                43          43
                44          44
                45          45
                46          46
                47          47
                48          48
                49          49
                50          50
                51          51
                52          52
                53          53
                54          54
                55          55
                56          56
                57          57
                58          58
                59          59
                60          60
                61          61
                62          62
                63          63
                64          64
                65          65
                66          66
                67          67
                68          68
                69          69
                70          70
                71          71
                72          72
                73          73
                74          74
                75          75
                76          76
                77          77
                78          78
                79          79
                80          80
                81          81
                82          82
                83          83
                84          84

----------------------------------------------------------------------------------------

 
 
 KPOINTS: K-Spacing Value to Generate K-Mesh: 0.03

Automatic generation of k-mesh.
 Grid dimensions read from file:
 generate k-points for:    8    6    8

 Generating k-lattice:

  Cartesian coordinates                     Fractional coordinates (reciprocal lattice)
     0.015394318  0.000000000  0.000000000     0.125000000  0.000000000  0.000000000
     0.000000000  0.014313534  0.000000000     0.000000000  0.166666667  0.000000000
     0.000000000  0.000000000  0.015103819     0.000000000  0.000000000  0.125000000

  Length of vectors
     0.015394318  0.014313534  0.015103819

  Shift w.r.t. Gamma in fractional coordinates (k-lattice)
     0.000000000  0.000000000  0.000000000

 
 Subroutine IBZKPT returns following result:
 ===========================================
 
 Found    100 irreducible k-points:
 
 Following reciprocal coordinates:
            Coordinates               Weight
  0.000000  0.000000  0.000000      1.000000
  0.125000  0.000000  0.000000      2.000000
  0.250000  0.000000  0.000000      2.000000
  0.375000  0.000000  0.000000      2.000000
  0.500000  0.000000  0.000000      1.000000
  0.000000  0.166667  0.000000      2.000000
  0.125000  0.166667  0.000000      4.000000
  0.250000  0.166667  0.000000      4.000000
  0.375000  0.166667  0.000000      4.000000
  0.500000  0.166667  0.000000      2.000000
  0.000000  0.333333  0.000000      2.000000
  0.125000  0.333333  0.000000      4.000000
  0.250000  0.333333  0.000000      4.000000
  0.375000  0.333333  0.000000      4.000000
  0.500000  0.333333  0.000000      2.000000
  0.000000  0.500000  0.000000      1.000000
  0.125000  0.500000  0.000000      2.000000
  0.250000  0.500000  0.000000      2.000000
  0.375000  0.500000  0.000000      2.000000
  0.500000  0.500000  0.000000      1.000000
  0.000000  0.000000  0.125000      2.000000
  0.125000  0.000000  0.125000      4.000000
  0.250000  0.000000  0.125000      4.000000
  0.375000  0.000000  0.125000      4.000000
  0.500000  0.000000  0.125000      2.000000
  0.000000  0.166667  0.125000      4.000000
  0.125000  0.166667  0.125000      8.000000
  0.250000  0.166667  0.125000      8.000000
  0.375000  0.166667  0.125000      8.000000
  0.500000  0.166667  0.125000      4.000000
  0.000000  0.333333  0.125000      4.000000
  0.125000  0.333333  0.125000      8.000000
  0.250000  0.333333  0.125000      8.000000
  0.375000  0.333333  0.125000      8.000000
  0.500000  0.333333  0.125000      4.000000
  0.000000  0.500000  0.125000      2.000000
  0.125000  0.500000  0.125000      4.000000
  0.250000  0.500000  0.125000      4.000000
  0.375000  0.500000  0.125000      4.000000
  0.500000  0.500000  0.125000      2.000000
  0.000000  0.000000  0.250000      2.000000
  0.125000  0.000000  0.250000      4.000000
  0.250000  0.000000  0.250000      4.000000
  0.375000  0.000000  0.250000      4.000000
  0.500000  0.000000  0.250000      2.000000
  0.000000  0.166667  0.250000      4.000000
  0.125000  0.166667  0.250000      8.000000
  0.250000  0.166667  0.250000      8.000000
  0.375000  0.166667  0.250000      8.000000
  0.500000  0.166667  0.250000      4.000000
  0.000000  0.333333  0.250000      4.000000
  0.125000  0.333333  0.250000      8.000000
  0.250000  0.333333  0.250000      8.000000
  0.375000  0.333333  0.250000      8.000000
  0.500000  0.333333  0.250000      4.000000
  0.000000  0.500000  0.250000      2.000000
  0.125000  0.500000  0.250000      4.000000
  0.250000  0.500000  0.250000      4.000000
  0.375000  0.500000  0.250000      4.000000
  0.500000  0.500000  0.250000      2.000000
  0.000000  0.000000  0.375000      2.000000
  0.125000  0.000000  0.375000      4.000000
  0.250000  0.000000  0.375000      4.000000
  0.375000  0.000000  0.375000      4.000000
  0.500000  0.000000  0.375000      2.000000
  0.000000  0.166667  0.375000      4.000000
  0.125000  0.166667  0.375000      8.000000
  0.250000  0.166667  0.375000      8.000000
  0.375000  0.166667  0.375000      8.000000
  0.500000  0.166667  0.375000      4.000000
  0.000000  0.333333  0.375000      4.000000
  0.125000  0.333333  0.375000      8.000000
  0.250000  0.333333  0.375000      8.000000
  0.375000  0.333333  0.375000      8.000000
  0.500000  0.333333  0.375000      4.000000
  0.000000  0.500000  0.375000      2.000000
  0.125000  0.500000  0.375000      4.000000
  0.250000  0.500000  0.375000      4.000000
  0.375000  0.500000  0.375000      4.000000
  0.500000  0.500000  0.375000      2.000000
  0.000000  0.000000  0.500000      1.000000
  0.125000  0.000000  0.500000      2.000000
  0.250000  0.000000  0.500000      2.000000
  0.375000  0.000000  0.500000      2.000000
  0.500000  0.000000  0.500000      1.000000
  0.000000  0.166667  0.500000      2.000000
  0.125000  0.166667  0.500000      4.000000
  0.250000  0.166667  0.500000      4.000000
  0.375000  0.166667  0.500000      4.000000
  0.500000  0.166667  0.500000      2.000000
  0.000000  0.333333  0.500000      2.000000
  0.125000  0.333333  0.500000      4.000000
  0.250000  0.333333  0.500000      4.000000
  0.375000  0.333333  0.500000      4.000000
  0.500000  0.333333  0.500000      2.000000
  0.000000  0.500000  0.500000      1.000000
  0.125000  0.500000  0.500000      2.000000
  0.250000  0.500000  0.500000      2.000000
  0.375000  0.500000  0.500000      2.000000
  0.500000  0.500000  0.500000      1.000000
 
 Following cartesian coordinates:
            Coordinates               Weight
  0.000000  0.000000  0.000000      1.000000
  0.015394  0.000000  0.000000      2.000000
  0.030789  0.000000  0.000000      2.000000
  0.046183  0.000000  0.000000      2.000000
  0.061577  0.000000  0.000000      1.000000
  0.000000  0.014314  0.000000      2.000000
  0.015394  0.014314  0.000000      4.000000
  0.030789  0.014314  0.000000      4.000000
  0.046183  0.014314  0.000000      4.000000
  0.061577  0.014314  0.000000      2.000000
  0.000000  0.028627  0.000000      2.000000
  0.015394  0.028627  0.000000      4.000000
  0.030789  0.028627  0.000000      4.000000
  0.046183  0.028627  0.000000      4.000000
  0.061577  0.028627  0.000000      2.000000
  0.000000  0.042941  0.000000      1.000000
  0.015394  0.042941  0.000000      2.000000
  0.030789  0.042941  0.000000      2.000000
  0.046183  0.042941  0.000000      2.000000
  0.061577  0.042941  0.000000      1.000000
  0.000000  0.000000  0.015104      2.000000
  0.015394  0.000000  0.015104      4.000000
  0.030789  0.000000  0.015104      4.000000
  0.046183  0.000000  0.015104      4.000000
  0.061577  0.000000  0.015104      2.000000
  0.000000  0.014314  0.015104      4.000000
  0.015394  0.014314  0.015104      8.000000
  0.030789  0.014314  0.015104      8.000000
  0.046183  0.014314  0.015104      8.000000
  0.061577  0.014314  0.015104      4.000000
  0.000000  0.028627  0.015104      4.000000
  0.015394  0.028627  0.015104      8.000000
  0.030789  0.028627  0.015104      8.000000
  0.046183  0.028627  0.015104      8.000000
  0.061577  0.028627  0.015104      4.000000
  0.000000  0.042941  0.015104      2.000000
  0.015394  0.042941  0.015104      4.000000
  0.030789  0.042941  0.015104      4.000000
  0.046183  0.042941  0.015104      4.000000
  0.061577  0.042941  0.015104      2.000000
  0.000000  0.000000  0.030208      2.000000
  0.015394  0.000000  0.030208      4.000000
  0.030789  0.000000  0.030208      4.000000
  0.046183  0.000000  0.030208      4.000000
  0.061577  0.000000  0.030208      2.000000
  0.000000  0.014314  0.030208      4.000000
  0.015394  0.014314  0.030208      8.000000
  0.030789  0.014314  0.030208      8.000000
  0.046183  0.014314  0.030208      8.000000
  0.061577  0.014314  0.030208      4.000000
  0.000000  0.028627  0.030208      4.000000
  0.015394  0.028627  0.030208      8.000000
  0.030789  0.028627  0.030208      8.000000
  0.046183  0.028627  0.030208      8.000000
  0.061577  0.028627  0.030208      4.000000
  0.000000  0.042941  0.030208      2.000000
  0.015394  0.042941  0.030208      4.000000
  0.030789  0.042941  0.030208      4.000000
  0.046183  0.042941  0.030208      4.000000
  0.061577  0.042941  0.030208      2.000000
  0.000000  0.000000  0.045311      2.000000
  0.015394  0.000000  0.045311      4.000000
  0.030789  0.000000  0.045311      4.000000
  0.046183  0.000000  0.045311      4.000000
  0.061577  0.000000  0.045311      2.000000
  0.000000  0.014314  0.045311      4.000000
  0.015394  0.014314  0.045311      8.000000
  0.030789  0.014314  0.045311      8.000000
  0.046183  0.014314  0.045311      8.000000
  0.061577  0.014314  0.045311      4.000000
  0.000000  0.028627  0.045311      4.000000
  0.015394  0.028627  0.045311      8.000000
  0.030789  0.028627  0.045311      8.000000
  0.046183  0.028627  0.045311      8.000000
  0.061577  0.028627  0.045311      4.000000
  0.000000  0.042941  0.045311      2.000000
  0.015394  0.042941  0.045311      4.000000
  0.030789  0.042941  0.045311      4.000000
  0.046183  0.042941  0.045311      4.000000
  0.061577  0.042941  0.045311      2.000000
  0.000000  0.000000  0.060415      1.000000
  0.015394  0.000000  0.060415      2.000000
  0.030789  0.000000  0.060415      2.000000
  0.046183  0.000000  0.060415      2.000000
  0.061577  0.000000  0.060415      1.000000
  0.000000  0.014314  0.060415      2.000000
  0.015394  0.014314  0.060415      4.000000
  0.030789  0.014314  0.060415      4.000000
  0.046183  0.014314  0.060415      4.000000
  0.061577  0.014314  0.060415      2.000000
  0.000000  0.028627  0.060415      2.000000
  0.015394  0.028627  0.060415      4.000000
  0.030789  0.028627  0.060415      4.000000
  0.046183  0.028627  0.060415      4.000000
  0.061577  0.028627  0.060415      2.000000
  0.000000  0.042941  0.060415      1.000000
  0.015394  0.042941  0.060415      2.000000
  0.030789  0.042941  0.060415      2.000000
  0.046183  0.042941  0.060415      2.000000
  0.061577  0.042941  0.060415      1.000000
 
 
 Subroutine IBZKPT_HF returns following result:
 ==============================================
 
 Found    384 k-points in 1st BZ
 the following    384 k-points will be used (e.g. in the exchange kernel)
 Following reciprocal coordinates:   # in IRBZ
  0.000000  0.000000  0.000000    0.00260417   1 t-inv F
  0.125000  0.000000  0.000000    0.00260417   2 t-inv F
  0.250000  0.000000  0.000000    0.00260417   3 t-inv F
  0.375000  0.000000  0.000000    0.00260417   4 t-inv F
  0.500000  0.000000  0.000000    0.00260417   5 t-inv F
  0.000000  0.166667  0.000000    0.00260417   6 t-inv F
  0.125000  0.166667  0.000000    0.00260417   7 t-inv F
  0.250000  0.166667  0.000000    0.00260417   8 t-inv F
  0.375000  0.166667  0.000000    0.00260417   9 t-inv F
  0.500000  0.166667  0.000000    0.00260417  10 t-inv F
  0.000000  0.333333  0.000000    0.00260417  11 t-inv F
  0.125000  0.333333  0.000000    0.00260417  12 t-inv F
  0.250000  0.333333  0.000000    0.00260417  13 t-inv F
  0.375000  0.333333  0.000000    0.00260417  14 t-inv F
  0.500000  0.333333  0.000000    0.00260417  15 t-inv F
  0.000000  0.500000  0.000000    0.00260417  16 t-inv F
  0.125000  0.500000  0.000000    0.00260417  17 t-inv F
  0.250000  0.500000  0.000000    0.00260417  18 t-inv F
  0.375000  0.500000  0.000000    0.00260417  19 t-inv F
  0.500000  0.500000  0.000000    0.00260417  20 t-inv F
  0.000000  0.000000  0.125000    0.00260417  21 t-inv F
  0.125000  0.000000  0.125000    0.00260417  22 t-inv F
  0.250000  0.000000  0.125000    0.00260417  23 t-inv F
  0.375000  0.000000  0.125000    0.00260417  24 t-inv F
  0.500000  0.000000  0.125000    0.00260417  25 t-inv F
  0.000000  0.166667  0.125000    0.00260417  26 t-inv F
  0.125000  0.166667  0.125000    0.00260417  27 t-inv F
  0.250000  0.166667  0.125000    0.00260417  28 t-inv F
  0.375000  0.166667  0.125000    0.00260417  29 t-inv F
  0.500000  0.166667  0.125000    0.00260417  30 t-inv F
  0.000000  0.333333  0.125000    0.00260417  31 t-inv F
  0.125000  0.333333  0.125000    0.00260417  32 t-inv F
  0.250000  0.333333  0.125000    0.00260417  33 t-inv F
  0.375000  0.333333  0.125000    0.00260417  34 t-inv F
  0.500000  0.333333  0.125000    0.00260417  35 t-inv F
  0.000000  0.500000  0.125000    0.00260417  36 t-inv F
  0.125000  0.500000  0.125000    0.00260417  37 t-inv F
  0.250000  0.500000  0.125000    0.00260417  38 t-inv F
  0.375000  0.500000  0.125000    0.00260417  39 t-inv F
  0.500000  0.500000  0.125000    0.00260417  40 t-inv F
  0.000000  0.000000  0.250000    0.00260417  41 t-inv F
  0.125000  0.000000  0.250000    0.00260417  42 t-inv F
  0.250000  0.000000  0.250000    0.00260417  43 t-inv F
  0.375000  0.000000  0.250000    0.00260417  44 t-inv F
  0.500000  0.000000  0.250000    0.00260417  45 t-inv F
  0.000000  0.166667  0.250000    0.00260417  46 t-inv F
  0.125000  0.166667  0.250000    0.00260417  47 t-inv F
  0.250000  0.166667  0.250000    0.00260417  48 t-inv F
  0.375000  0.166667  0.250000    0.00260417  49 t-inv F
  0.500000  0.166667  0.250000    0.00260417  50 t-inv F
  0.000000  0.333333  0.250000    0.00260417  51 t-inv F
  0.125000  0.333333  0.250000    0.00260417  52 t-inv F
  0.250000  0.333333  0.250000    0.00260417  53 t-inv F
  0.375000  0.333333  0.250000    0.00260417  54 t-inv F
  0.500000  0.333333  0.250000    0.00260417  55 t-inv F
  0.000000  0.500000  0.250000    0.00260417  56 t-inv F
  0.125000  0.500000  0.250000    0.00260417  57 t-inv F
  0.250000  0.500000  0.250000    0.00260417  58 t-inv F
  0.375000  0.500000  0.250000    0.00260417  59 t-inv F
  0.500000  0.500000  0.250000    0.00260417  60 t-inv F
  0.000000  0.000000  0.375000    0.00260417  61 t-inv F
  0.125000  0.000000  0.375000    0.00260417  62 t-inv F
  0.250000  0.000000  0.375000    0.00260417  63 t-inv F
  0.375000  0.000000  0.375000    0.00260417  64 t-inv F
  0.500000  0.000000  0.375000    0.00260417  65 t-inv F
  0.000000  0.166667  0.375000    0.00260417  66 t-inv F
  0.125000  0.166667  0.375000    0.00260417  67 t-inv F
  0.250000  0.166667  0.375000    0.00260417  68 t-inv F
  0.375000  0.166667  0.375000    0.00260417  69 t-inv F
  0.500000  0.166667  0.375000    0.00260417  70 t-inv F
  0.000000  0.333333  0.375000    0.00260417  71 t-inv F
  0.125000  0.333333  0.375000    0.00260417  72 t-inv F
  0.250000  0.333333  0.375000    0.00260417  73 t-inv F
  0.375000  0.333333  0.375000    0.00260417  74 t-inv F
  0.500000  0.333333  0.375000    0.00260417  75 t-inv F
  0.000000  0.500000  0.375000    0.00260417  76 t-inv F
  0.125000  0.500000  0.375000    0.00260417  77 t-inv F
  0.250000  0.500000  0.375000    0.00260417  78 t-inv F
  0.375000  0.500000  0.375000    0.00260417  79 t-inv F
  0.500000  0.500000  0.375000    0.00260417  80 t-inv F
  0.000000  0.000000  0.500000    0.00260417  81 t-inv F
  0.125000  0.000000  0.500000    0.00260417  82 t-inv F
  0.250000  0.000000  0.500000    0.00260417  83 t-inv F
  0.375000  0.000000  0.500000    0.00260417  84 t-inv F
  0.500000  0.000000  0.500000    0.00260417  85 t-inv F
  0.000000  0.166667  0.500000    0.00260417  86 t-inv F
  0.125000  0.166667  0.500000    0.00260417  87 t-inv F
  0.250000  0.166667  0.500000    0.00260417  88 t-inv F
  0.375000  0.166667  0.500000    0.00260417  89 t-inv F
  0.500000  0.166667  0.500000    0.00260417  90 t-inv F
  0.000000  0.333333  0.500000    0.00260417  91 t-inv F
  0.125000  0.333333  0.500000    0.00260417  92 t-inv F
  0.250000  0.333333  0.500000    0.00260417  93 t-inv F
  0.375000  0.333333  0.500000    0.00260417  94 t-inv F
  0.500000  0.333333  0.500000    0.00260417  95 t-inv F
  0.000000  0.500000  0.500000    0.00260417  96 t-inv F
  0.125000  0.500000  0.500000    0.00260417  97 t-inv F
  0.250000  0.500000  0.500000    0.00260417  98 t-inv F
  0.375000  0.500000  0.500000    0.00260417  99 t-inv F
  0.500000  0.500000  0.500000    0.00260417 100 t-inv F
 -0.125000 -0.000000 -0.000000    0.00260417   2 t-inv F
 -0.250000 -0.000000 -0.000000    0.00260417   3 t-inv F
 -0.375000 -0.000000 -0.000000    0.00260417   4 t-inv F
 -0.000000 -0.166667 -0.000000    0.00260417   6 t-inv F
 -0.125000 -0.166667 -0.000000    0.00260417   7 t-inv F
 -0.125000  0.166667 -0.000000    0.00260417   7 t-inv F spinflp
  0.125000 -0.166667  0.000000    0.00260417   7 t-inv F spinflp
 -0.250000 -0.166667 -0.000000    0.00260417   8 t-inv F
 -0.250000  0.166667 -0.000000    0.00260417   8 t-inv F spinflp
  0.250000 -0.166667  0.000000    0.00260417   8 t-inv F spinflp
 -0.375000 -0.166667 -0.000000    0.00260417   9 t-inv F
 -0.375000  0.166667 -0.000000    0.00260417   9 t-inv F spinflp
  0.375000 -0.166667  0.000000    0.00260417   9 t-inv F spinflp
 -0.500000 -0.166667 -0.000000    0.00260417  10 t-inv F
 -0.000000 -0.333333 -0.000000    0.00260417  11 t-inv F
 -0.125000 -0.333333 -0.000000    0.00260417  12 t-inv F
 -0.125000  0.333333 -0.000000    0.00260417  12 t-inv F spinflp
  0.125000 -0.333333  0.000000    0.00260417  12 t-inv F spinflp
 -0.250000 -0.333333 -0.000000    0.00260417  13 t-inv F
 -0.250000  0.333333 -0.000000    0.00260417  13 t-inv F spinflp
  0.250000 -0.333333  0.000000    0.00260417  13 t-inv F spinflp
 -0.375000 -0.333333 -0.000000    0.00260417  14 t-inv F
 -0.375000  0.333333 -0.000000    0.00260417  14 t-inv F spinflp
  0.375000 -0.333333  0.000000    0.00260417  14 t-inv F spinflp
 -0.500000 -0.333333 -0.000000    0.00260417  15 t-inv F
 -0.125000 -0.500000 -0.000000    0.00260417  17 t-inv F
 -0.250000 -0.500000 -0.000000    0.00260417  18 t-inv F
 -0.375000 -0.500000 -0.000000    0.00260417  19 t-inv F
 -0.000000 -0.000000 -0.125000    0.00260417  21 t-inv F
 -0.125000 -0.000000 -0.125000    0.00260417  22 t-inv F
 -0.125000 -0.000000  0.125000    0.00260417  22 t-inv F spinflp
  0.125000  0.000000 -0.125000    0.00260417  22 t-inv F spinflp
 -0.250000 -0.000000 -0.125000    0.00260417  23 t-inv F
 -0.250000 -0.000000  0.125000    0.00260417  23 t-inv F spinflp
  0.250000  0.000000 -0.125000    0.00260417  23 t-inv F spinflp
 -0.375000 -0.000000 -0.125000    0.00260417  24 t-inv F
 -0.375000 -0.000000  0.125000    0.00260417  24 t-inv F spinflp
  0.375000  0.000000 -0.125000    0.00260417  24 t-inv F spinflp
 -0.500000 -0.000000 -0.125000    0.00260417  25 t-inv F
 -0.000000 -0.166667 -0.125000    0.00260417  26 t-inv F
 -0.000000  0.166667 -0.125000    0.00260417  26 t-inv F spinflp
  0.000000 -0.166667  0.125000    0.00260417  26 t-inv F spinflp
 -0.125000 -0.166667 -0.125000    0.00260417  27 t-inv F
 -0.125000  0.166667 -0.125000    0.00260417  27 t-inv F spinflp
  0.125000 -0.166667  0.125000    0.00260417  27 t-inv F spinflp
 -0.125000 -0.166667  0.125000    0.00260417  27 t-inv F spinflp
  0.125000  0.166667 -0.125000    0.00260417  27 t-inv F spinflp
  0.125000 -0.166667 -0.125000    0.00260417  27 t-inv F
 -0.125000  0.166667  0.125000    0.00260417  27 t-inv F
 -0.250000 -0.166667 -0.125000    0.00260417  28 t-inv F
 -0.250000  0.166667 -0.125000    0.00260417  28 t-inv F spinflp
  0.250000 -0.166667  0.125000    0.00260417  28 t-inv F spinflp
 -0.250000 -0.166667  0.125000    0.00260417  28 t-inv F spinflp
  0.250000  0.166667 -0.125000    0.00260417  28 t-inv F spinflp
  0.250000 -0.166667 -0.125000    0.00260417  28 t-inv F
 -0.250000  0.166667  0.125000    0.00260417  28 t-inv F
 -0.375000 -0.166667 -0.125000    0.00260417  29 t-inv F
 -0.375000  0.166667 -0.125000    0.00260417  29 t-inv F spinflp
  0.375000 -0.166667  0.125000    0.00260417  29 t-inv F spinflp
 -0.375000 -0.166667  0.125000    0.00260417  29 t-inv F spinflp
  0.375000  0.166667 -0.125000    0.00260417  29 t-inv F spinflp
  0.375000 -0.166667 -0.125000    0.00260417  29 t-inv F
 -0.375000  0.166667  0.125000    0.00260417  29 t-inv F
 -0.500000 -0.166667 -0.125000    0.00260417  30 t-inv F
 -0.500000  0.166667 -0.125000    0.00260417  30 t-inv F spinflp
  0.500000 -0.166667  0.125000    0.00260417  30 t-inv F spinflp
 -0.000000 -0.333333 -0.125000    0.00260417  31 t-inv F
 -0.000000  0.333333 -0.125000    0.00260417  31 t-inv F spinflp
  0.000000 -0.333333  0.125000    0.00260417  31 t-inv F spinflp
 -0.125000 -0.333333 -0.125000    0.00260417  32 t-inv F
 -0.125000  0.333333 -0.125000    0.00260417  32 t-inv F spinflp
  0.125000 -0.333333  0.125000    0.00260417  32 t-inv F spinflp
 -0.125000 -0.333333  0.125000    0.00260417  32 t-inv F spinflp
  0.125000  0.333333 -0.125000    0.00260417  32 t-inv F spinflp
  0.125000 -0.333333 -0.125000    0.00260417  32 t-inv F
 -0.125000  0.333333  0.125000    0.00260417  32 t-inv F
 -0.250000 -0.333333 -0.125000    0.00260417  33 t-inv F
 -0.250000  0.333333 -0.125000    0.00260417  33 t-inv F spinflp
  0.250000 -0.333333  0.125000    0.00260417  33 t-inv F spinflp
 -0.250000 -0.333333  0.125000    0.00260417  33 t-inv F spinflp
  0.250000  0.333333 -0.125000    0.00260417  33 t-inv F spinflp
  0.250000 -0.333333 -0.125000    0.00260417  33 t-inv F
 -0.250000  0.333333  0.125000    0.00260417  33 t-inv F
 -0.375000 -0.333333 -0.125000    0.00260417  34 t-inv F
 -0.375000  0.333333 -0.125000    0.00260417  34 t-inv F spinflp
  0.375000 -0.333333  0.125000    0.00260417  34 t-inv F spinflp
 -0.375000 -0.333333  0.125000    0.00260417  34 t-inv F spinflp
  0.375000  0.333333 -0.125000    0.00260417  34 t-inv F spinflp
  0.375000 -0.333333 -0.125000    0.00260417  34 t-inv F
 -0.375000  0.333333  0.125000    0.00260417  34 t-inv F
 -0.500000 -0.333333 -0.125000    0.00260417  35 t-inv F
 -0.500000  0.333333 -0.125000    0.00260417  35 t-inv F spinflp
  0.500000 -0.333333  0.125000    0.00260417  35 t-inv F spinflp
 -0.000000 -0.500000 -0.125000    0.00260417  36 t-inv F
 -0.125000 -0.500000 -0.125000    0.00260417  37 t-inv F
 -0.125000 -0.500000  0.125000    0.00260417  37 t-inv F spinflp
  0.125000  0.500000 -0.125000    0.00260417  37 t-inv F spinflp
 -0.250000 -0.500000 -0.125000    0.00260417  38 t-inv F
 -0.250000 -0.500000  0.125000    0.00260417  38 t-inv F spinflp
  0.250000  0.500000 -0.125000    0.00260417  38 t-inv F spinflp
 -0.375000 -0.500000 -0.125000    0.00260417  39 t-inv F
 -0.375000 -0.500000  0.125000    0.00260417  39 t-inv F spinflp
  0.375000  0.500000 -0.125000    0.00260417  39 t-inv F spinflp
 -0.500000 -0.500000 -0.125000    0.00260417  40 t-inv F
 -0.000000 -0.000000 -0.250000    0.00260417  41 t-inv F
 -0.125000 -0.000000 -0.250000    0.00260417  42 t-inv F
 -0.125000 -0.000000  0.250000    0.00260417  42 t-inv F spinflp
  0.125000  0.000000 -0.250000    0.00260417  42 t-inv F spinflp
 -0.250000 -0.000000 -0.250000    0.00260417  43 t-inv F
 -0.250000 -0.000000  0.250000    0.00260417  43 t-inv F spinflp
  0.250000  0.000000 -0.250000    0.00260417  43 t-inv F spinflp
 -0.375000 -0.000000 -0.250000    0.00260417  44 t-inv F
 -0.375000 -0.000000  0.250000    0.00260417  44 t-inv F spinflp
  0.375000  0.000000 -0.250000    0.00260417  44 t-inv F spinflp
 -0.500000 -0.000000 -0.250000    0.00260417  45 t-inv F
 -0.000000 -0.166667 -0.250000    0.00260417  46 t-inv F
 -0.000000  0.166667 -0.250000    0.00260417  46 t-inv F spinflp
  0.000000 -0.166667  0.250000    0.00260417  46 t-inv F spinflp
 -0.125000 -0.166667 -0.250000    0.00260417  47 t-inv F
 -0.125000  0.166667 -0.250000    0.00260417  47 t-inv F spinflp
  0.125000 -0.166667  0.250000    0.00260417  47 t-inv F spinflp
 -0.125000 -0.166667  0.250000    0.00260417  47 t-inv F spinflp
  0.125000  0.166667 -0.250000    0.00260417  47 t-inv F spinflp
  0.125000 -0.166667 -0.250000    0.00260417  47 t-inv F
 -0.125000  0.166667  0.250000    0.00260417  47 t-inv F
 -0.250000 -0.166667 -0.250000    0.00260417  48 t-inv F
 -0.250000  0.166667 -0.250000    0.00260417  48 t-inv F spinflp
  0.250000 -0.166667  0.250000    0.00260417  48 t-inv F spinflp
 -0.250000 -0.166667  0.250000    0.00260417  48 t-inv F spinflp
  0.250000  0.166667 -0.250000    0.00260417  48 t-inv F spinflp
  0.250000 -0.166667 -0.250000    0.00260417  48 t-inv F
 -0.250000  0.166667  0.250000    0.00260417  48 t-inv F
 -0.375000 -0.166667 -0.250000    0.00260417  49 t-inv F
 -0.375000  0.166667 -0.250000    0.00260417  49 t-inv F spinflp
  0.375000 -0.166667  0.250000    0.00260417  49 t-inv F spinflp
 -0.375000 -0.166667  0.250000    0.00260417  49 t-inv F spinflp
  0.375000  0.166667 -0.250000    0.00260417  49 t-inv F spinflp
  0.375000 -0.166667 -0.250000    0.00260417  49 t-inv F
 -0.375000  0.166667  0.250000    0.00260417  49 t-inv F
 -0.500000 -0.166667 -0.250000    0.00260417  50 t-inv F
 -0.500000  0.166667 -0.250000    0.00260417  50 t-inv F spinflp
  0.500000 -0.166667  0.250000    0.00260417  50 t-inv F spinflp
 -0.000000 -0.333333 -0.250000    0.00260417  51 t-inv F
 -0.000000  0.333333 -0.250000    0.00260417  51 t-inv F spinflp
  0.000000 -0.333333  0.250000    0.00260417  51 t-inv F spinflp
 -0.125000 -0.333333 -0.250000    0.00260417  52 t-inv F
 -0.125000  0.333333 -0.250000    0.00260417  52 t-inv F spinflp
  0.125000 -0.333333  0.250000    0.00260417  52 t-inv F spinflp
 -0.125000 -0.333333  0.250000    0.00260417  52 t-inv F spinflp
  0.125000  0.333333 -0.250000    0.00260417  52 t-inv F spinflp
  0.125000 -0.333333 -0.250000    0.00260417  52 t-inv F
 -0.125000  0.333333  0.250000    0.00260417  52 t-inv F
 -0.250000 -0.333333 -0.250000    0.00260417  53 t-inv F
 -0.250000  0.333333 -0.250000    0.00260417  53 t-inv F spinflp
  0.250000 -0.333333  0.250000    0.00260417  53 t-inv F spinflp
 -0.250000 -0.333333  0.250000    0.00260417  53 t-inv F spinflp
  0.250000  0.333333 -0.250000    0.00260417  53 t-inv F spinflp
  0.250000 -0.333333 -0.250000    0.00260417  53 t-inv F
 -0.250000  0.333333  0.250000    0.00260417  53 t-inv F
 -0.375000 -0.333333 -0.250000    0.00260417  54 t-inv F
 -0.375000  0.333333 -0.250000    0.00260417  54 t-inv F spinflp
  0.375000 -0.333333  0.250000    0.00260417  54 t-inv F spinflp
 -0.375000 -0.333333  0.250000    0.00260417  54 t-inv F spinflp
  0.375000  0.333333 -0.250000    0.00260417  54 t-inv F spinflp
  0.375000 -0.333333 -0.250000    0.00260417  54 t-inv F
 -0.375000  0.333333  0.250000    0.00260417  54 t-inv F
 -0.500000 -0.333333 -0.250000    0.00260417  55 t-inv F
 -0.500000  0.333333 -0.250000    0.00260417  55 t-inv F spinflp
  0.500000 -0.333333  0.250000    0.00260417  55 t-inv F spinflp
 -0.000000 -0.500000 -0.250000    0.00260417  56 t-inv F
 -0.125000 -0.500000 -0.250000    0.00260417  57 t-inv F
 -0.125000 -0.500000  0.250000    0.00260417  57 t-inv F spinflp
  0.125000  0.500000 -0.250000    0.00260417  57 t-inv F spinflp
 -0.250000 -0.500000 -0.250000    0.00260417  58 t-inv F
 -0.250000 -0.500000  0.250000    0.00260417  58 t-inv F spinflp
  0.250000  0.500000 -0.250000    0.00260417  58 t-inv F spinflp
 -0.375000 -0.500000 -0.250000    0.00260417  59 t-inv F
 -0.375000 -0.500000  0.250000    0.00260417  59 t-inv F spinflp
  0.375000  0.500000 -0.250000    0.00260417  59 t-inv F spinflp
 -0.500000 -0.500000 -0.250000    0.00260417  60 t-inv F
 -0.000000 -0.000000 -0.375000    0.00260417  61 t-inv F
 -0.125000 -0.000000 -0.375000    0.00260417  62 t-inv F
 -0.125000 -0.000000  0.375000    0.00260417  62 t-inv F spinflp
  0.125000  0.000000 -0.375000    0.00260417  62 t-inv F spinflp
 -0.250000 -0.000000 -0.375000    0.00260417  63 t-inv F
 -0.250000 -0.000000  0.375000    0.00260417  63 t-inv F spinflp
  0.250000  0.000000 -0.375000    0.00260417  63 t-inv F spinflp
 -0.375000 -0.000000 -0.375000    0.00260417  64 t-inv F
 -0.375000 -0.000000  0.375000    0.00260417  64 t-inv F spinflp
  0.375000  0.000000 -0.375000    0.00260417  64 t-inv F spinflp
 -0.500000 -0.000000 -0.375000    0.00260417  65 t-inv F
 -0.000000 -0.166667 -0.375000    0.00260417  66 t-inv F
 -0.000000  0.166667 -0.375000    0.00260417  66 t-inv F spinflp
  0.000000 -0.166667  0.375000    0.00260417  66 t-inv F spinflp
 -0.125000 -0.166667 -0.375000    0.00260417  67 t-inv F
 -0.125000  0.166667 -0.375000    0.00260417  67 t-inv F spinflp
  0.125000 -0.166667  0.375000    0.00260417  67 t-inv F spinflp
 -0.125000 -0.166667  0.375000    0.00260417  67 t-inv F spinflp
  0.125000  0.166667 -0.375000    0.00260417  67 t-inv F spinflp
  0.125000 -0.166667 -0.375000    0.00260417  67 t-inv F
 -0.125000  0.166667  0.375000    0.00260417  67 t-inv F
 -0.250000 -0.166667 -0.375000    0.00260417  68 t-inv F
 -0.250000  0.166667 -0.375000    0.00260417  68 t-inv F spinflp
  0.250000 -0.166667  0.375000    0.00260417  68 t-inv F spinflp
 -0.250000 -0.166667  0.375000    0.00260417  68 t-inv F spinflp
  0.250000  0.166667 -0.375000    0.00260417  68 t-inv F spinflp
  0.250000 -0.166667 -0.375000    0.00260417  68 t-inv F
 -0.250000  0.166667  0.375000    0.00260417  68 t-inv F
 -0.375000 -0.166667 -0.375000    0.00260417  69 t-inv F
 -0.375000  0.166667 -0.375000    0.00260417  69 t-inv F spinflp
  0.375000 -0.166667  0.375000    0.00260417  69 t-inv F spinflp
 -0.375000 -0.166667  0.375000    0.00260417  69 t-inv F spinflp
  0.375000  0.166667 -0.375000    0.00260417  69 t-inv F spinflp
  0.375000 -0.166667 -0.375000    0.00260417  69 t-inv F
 -0.375000  0.166667  0.375000    0.00260417  69 t-inv F
 -0.500000 -0.166667 -0.375000    0.00260417  70 t-inv F
 -0.500000  0.166667 -0.375000    0.00260417  70 t-inv F spinflp
  0.500000 -0.166667  0.375000    0.00260417  70 t-inv F spinflp
 -0.000000 -0.333333 -0.375000    0.00260417  71 t-inv F
 -0.000000  0.333333 -0.375000    0.00260417  71 t-inv F spinflp
  0.000000 -0.333333  0.375000    0.00260417  71 t-inv F spinflp
 -0.125000 -0.333333 -0.375000    0.00260417  72 t-inv F
 -0.125000  0.333333 -0.375000    0.00260417  72 t-inv F spinflp
  0.125000 -0.333333  0.375000    0.00260417  72 t-inv F spinflp
 -0.125000 -0.333333  0.375000    0.00260417  72 t-inv F spinflp
  0.125000  0.333333 -0.375000    0.00260417  72 t-inv F spinflp
  0.125000 -0.333333 -0.375000    0.00260417  72 t-inv F
 -0.125000  0.333333  0.375000    0.00260417  72 t-inv F
 -0.250000 -0.333333 -0.375000    0.00260417  73 t-inv F
 -0.250000  0.333333 -0.375000    0.00260417  73 t-inv F spinflp
  0.250000 -0.333333  0.375000    0.00260417  73 t-inv F spinflp
 -0.250000 -0.333333  0.375000    0.00260417  73 t-inv F spinflp
  0.250000  0.333333 -0.375000    0.00260417  73 t-inv F spinflp
  0.250000 -0.333333 -0.375000    0.00260417  73 t-inv F
 -0.250000  0.333333  0.375000    0.00260417  73 t-inv F
 -0.375000 -0.333333 -0.375000    0.00260417  74 t-inv F
 -0.375000  0.333333 -0.375000    0.00260417  74 t-inv F spinflp
  0.375000 -0.333333  0.375000    0.00260417  74 t-inv F spinflp
 -0.375000 -0.333333  0.375000    0.00260417  74 t-inv F spinflp
  0.375000  0.333333 -0.375000    0.00260417  74 t-inv F spinflp
  0.375000 -0.333333 -0.375000    0.00260417  74 t-inv F
 -0.375000  0.333333  0.375000    0.00260417  74 t-inv F
 -0.500000 -0.333333 -0.375000    0.00260417  75 t-inv F
 -0.500000  0.333333 -0.375000    0.00260417  75 t-inv F spinflp
  0.500000 -0.333333  0.375000    0.00260417  75 t-inv F spinflp
 -0.000000 -0.500000 -0.375000    0.00260417  76 t-inv F
 -0.125000 -0.500000 -0.375000    0.00260417  77 t-inv F
 -0.125000 -0.500000  0.375000    0.00260417  77 t-inv F spinflp
  0.125000  0.500000 -0.375000    0.00260417  77 t-inv F spinflp
 -0.250000 -0.500000 -0.375000    0.00260417  78 t-inv F
 -0.250000 -0.500000  0.375000    0.00260417  78 t-inv F spinflp
  0.250000  0.500000 -0.375000    0.00260417  78 t-inv F spinflp
 -0.375000 -0.500000 -0.375000    0.00260417  79 t-inv F
 -0.375000 -0.500000  0.375000    0.00260417  79 t-inv F spinflp
  0.375000  0.500000 -0.375000    0.00260417  79 t-inv F spinflp
 -0.500000 -0.500000 -0.375000    0.00260417  80 t-inv F
 -0.125000 -0.000000 -0.500000    0.00260417  82 t-inv F
 -0.250000 -0.000000 -0.500000    0.00260417  83 t-inv F
 -0.375000 -0.000000 -0.500000    0.00260417  84 t-inv F
 -0.000000 -0.166667 -0.500000    0.00260417  86 t-inv F
 -0.125000 -0.166667 -0.500000    0.00260417  87 t-inv F
 -0.125000  0.166667 -0.500000    0.00260417  87 t-inv F spinflp
  0.125000 -0.166667  0.500000    0.00260417  87 t-inv F spinflp
 -0.250000 -0.166667 -0.500000    0.00260417  88 t-inv F
 -0.250000  0.166667 -0.500000    0.00260417  88 t-inv F spinflp
  0.250000 -0.166667  0.500000    0.00260417  88 t-inv F spinflp
 -0.375000 -0.166667 -0.500000    0.00260417  89 t-inv F
 -0.375000  0.166667 -0.500000    0.00260417  89 t-inv F spinflp
  0.375000 -0.166667  0.500000    0.00260417  89 t-inv F spinflp
 -0.500000 -0.166667 -0.500000    0.00260417  90 t-inv F
 -0.000000 -0.333333 -0.500000    0.00260417  91 t-inv F
 -0.125000 -0.333333 -0.500000    0.00260417  92 t-inv F
 -0.125000  0.333333 -0.500000    0.00260417  92 t-inv F spinflp
  0.125000 -0.333333  0.500000    0.00260417  92 t-inv F spinflp
 -0.250000 -0.333333 -0.500000    0.00260417  93 t-inv F
 -0.250000  0.333333 -0.500000    0.00260417  93 t-inv F spinflp
  0.250000 -0.333333  0.500000    0.00260417  93 t-inv F spinflp
 -0.375000 -0.333333 -0.500000    0.00260417  94 t-inv F
 -0.375000  0.333333 -0.500000    0.00260417  94 t-inv F spinflp
  0.375000 -0.333333  0.500000    0.00260417  94 t-inv F spinflp
 -0.500000 -0.333333 -0.500000    0.00260417  95 t-inv F
 -0.125000 -0.500000 -0.500000    0.00260417  97 t-inv F
 -0.250000 -0.500000 -0.500000    0.00260417  98 t-inv F
 -0.375000 -0.500000 -0.500000    0.00260417  99 t-inv F


--------------------------------------------------------------------------------------------------------




 Dimension of arrays:
   k-points           NKPTS =    100   k-points in BZ     NKDIM =    100   number of bands    NBANDS=    256
   number of dos      NEDOS =    301   number of ions     NIONS =     84
   non local maximal  LDIM  =      6   non local SUM 2l+1 LMDIM =     18
   total plane-waves  NPLWV = 544320
   max r-space proj   IRMAX =      1   max aug-charges    IRDMAX= 219654
   dimension x,y,z NGX =    70 NGY =  108 NGZ =   72
   dimension x,y,z NGXF=   140 NGYF=  216 NGZF=  144
   support grid    NGXF=   280 NGYF=  432 NGZF=  288
   ions per type =               4   4  16  36  24
   NGX,Y,Z   is equivalent  to a cutoff of  14.33, 15.42, 14.46 a.u.
   NGXF,Y,Z  is equivalent  to a cutoff of  28.66, 30.84, 28.93 a.u.

 SYSTEM =  unknown system                          
 POSCAR =  crystal                                 

 Startparameter for this run:
   NWRITE =      2    write-flag & timer
   PREC   = accura    normal or accurate (medium, high low for compatibility)
   ISTART =      1    job   : 0-new  1-cont  2-samecut
   ICHARG =     11    charge: 1-file 2-atom 10-const
   ISPIN  =      2    spin polarized calculation?
   LNONCOLLINEAR =      F non collinear calculations
   LSORBIT =      F    spin-orbit coupling
   INIWAV =      1    electr: 0-lowe 1-rand  2-diag
   LASPH  =      T    aspherical Exc in radial PAW
 Electronic Relaxation 1
   ENCUT  =  708.0 eV  52.04 Ry    7.21 a.u.  17.62 25.26 17.96*2*pi/ulx,y,z
   ENINI  =  708.0     initial cutoff
   ENAUG  =  708.0 eV  augmentation charge cutoff
   NELM   =     60;   NELMIN=  2; NELMDL=  0     # of ELM steps 
   EDIFF  = 0.1E-09   stopping-criterion for ELM
   LREAL  =      F    real-space projection
   NLSPLINE    = F    spline interpolate recip. space projectors
   LCOMPAT=      F    compatible to vasp.4.4
   GGA_COMPAT  = F    GGA compatible to vasp.4.4-vasp.4.6
   LMAXPAW     = -100 max onsite density
   LMAXMIX     =    4 max onsite mixed and CHGCAR
   VOSKOWN=      0    Vosko Wilk Nusair interpolation
   ROPT   =    0.00000   0.00000   0.00000   0.00000
   ROPT   =    0.00000
 Ionic relaxation
   EDIFFG = -.5E-02   stopping-criterion for IOM
   NSW    =      0    number of steps for IOM
   NBLOCK =      1;   KBLOCK =      1    inner block; outer block 
   IBRION =     -1    ionic relax: 0-MD 1-quasi-New 2-CG
   NFREE  =      0    steps in history (QN), initial steepest desc. (CG)
   ISIF   =      3    stress and relaxation
   IWAVPR =     10    prediction:  0-non 1-charg 2-wave 3-comb
   ISYM   =      2    0-nonsym 1-usesym 2-fastsym
   LCORR  =      T    Harris-Foulkes like correction to forces

   POTIM  = 0.5000    time-step for ionic-motion
   TEIN   =    0.0    initial temperature
   TEBEG  =    0.0;   TEEND  =   0.0 temperature during run
   SMASS  =  -3.00    Nose mass-parameter (am)
   estimated Nose-frequenzy (Omega)   =  0.10E-29 period in steps = 0.13E+47 mass=  -0.151E-26a.u.
   SCALEE = 1.0000    scale energy and forces
   NPACO  =    256;   APACO  = 16.0  distance and # of slots for P.C.
   PSTRESS=    0.0 pullay stress

  Mass of Ions in am
   POMASS =  58.93 14.00 12.01  1.00 16.00
  Ionic Valenz
   ZVAL   =   9.00  5.00  4.00  1.00  6.00
  Atomic Wigner-Seitz radii
   RWIGS  =  -1.00 -1.00 -1.00 -1.00 -1.00
  virtual crystal weights 
   VCA    =   1.00  1.00  1.00  1.00  1.00
   NELECT =     300.0000    total number of electrons
   NUPDOWN=      -1.0000    fix difference up-down

 DOS related values:
   EMIN   =  10.00;   EMAX   =-10.00  energy-range for DOS
   EFERMI =   0.00
   ISMEAR =     0;   SIGMA  =   0.05  broadening in eV -4-tet -1-fermi 0-gaus

 Electronic relaxation 2 (details)
   IALGO  =     38    algorithm
   LDIAG  =      T    sub-space diagonalisation (order eigenvalues)
   LSUBROT=      F    optimize rotation matrix (better conditioning)
   TURBO    =      0    0=normal 1=particle mesh
   IRESTART =      0    0=no restart 2=restart with 2 vectors
   NREBOOT  =      0    no. of reboots
   NMIN     =      0    reboot dimension
   EREF     =   0.00    reference energy to select bands
   IMIX   =      4    mixing-type and parameters
     AMIX     =   0.40;   BMIX     =  1.00
     AMIX_MAG =   1.60;   BMIX_MAG =  1.00
     AMIN     =   0.10
     WC   =   100.;   INIMIX=   1;  MIXPRE=   1;  MAXMIX= -45

 Intra band minimization:
   WEIMIN = 0.0000     energy-eigenvalue tresh-hold
   EBREAK =  0.98E-13  absolut break condition
   DEPER  =   0.30     relativ break condition  

   TIME   =   0.40     timestep for ELM

  volume/ion in A,a.u.               =       9.32        62.86
  Fermi-wavevector in a.u.,A,eV,Ry     =   1.189297  2.247446 19.244457  1.414428
  Thomas-Fermi vector in A             =   2.325408
 
 Write flags
   LWAVE        =      T    write WAVECAR
   LDOWNSAMPLE  =      F    k-point downsampling of WAVECAR
   LCHARG       =      T    write CHGCAR
   LVTOT        =      F    write LOCPOT, total local potential
   LVHAR        =      F    write LOCPOT, Hartree potential only
   LELF         =      F    write electronic localiz. function (ELF)
   LORBIT       =     11    0 simple, 1 ext, 2 COOP (PROOUT), +10 PAW based schemes


 Dipole corrections
   LMONO  =      F    monopole corrections only (constant potential shift)
   LDIPOL =      F    correct potential (dipole corrections)
   IDIPOL =      0    1-x, 2-y, 3-z, 4-all directions 
   EPSILON=  1.0000000 bulk dielectric constant

[...]
  186          m_sumb_d                              0.785223                          2   4
  187        fordep                                4.436559                            1   3
  188          setdij_                               4.435053                          6   4
  189            fft3d_mpi                             0.621820                       24   5
  190              fftbas_plan_mpi                       0.603610                     24   6
  191                dfftw_execute                         0.130748                   72   7
  192                map_backward                          0.062490                   24   7
  193                  map_gather                            0.004310                 12   8
  194                  m_alltoallv_z                         0.056931                 12   8
  195                  map_scatter                           0.001008                 12   8
  196                map_forward                           0.398995                   24   7
  197                  map_gather                            0.067073                 12   8
  198                  m_alltoallv_z                         0.103408                 12   8
  199                  map_scatter                           0.228326                 12   8
  200            m_sumb_d                              0.039017                        6   5
  201        setdij_                              14.936117                           20   3
  202          fft3d_mpi                             2.324451                         80   4
  203            fftbas_plan_mpi                       2.260288                       80   5
  204              dfftw_execute                         0.436547                    240   6
  205              map_backward                          0.457785                     80   6
  206                map_gather                            0.014534                   40   7
  207                m_alltoallv_z                         0.438830                   40   7
  208                map_scatter                           0.004258                   40   7
  209              map_forward                           1.341316                     80   6
  210                map_gather                            0.225742                   40   7
  211                m_alltoallv_z                         0.339535                   40   7
  212                map_scatter                           0.775486                   40   7
  213          m_sumb_d                              0.166227                         20   4
  214        set_dd_magatom                        0.000375                            1   3
  215        set_dd_paw                            0.453791                            1   3
  216          set_rsgf_all                          0.002555                          1   4
  217          m_sumb_d                              0.443079                          8   4
  218        strkin                                0.106819                            1   3
  219          m_sumb_d                              0.001057                          1   4
  220        strelo                                0.010249                            1   3
  221          m_sumb_d                              0.000424                          2   4
  222        strenl                              227.876549                            1   3
  223          spher                                37.985232                         19   4
  224          phase                                34.127801                        450   4
  225          proj1                               148.575679                       3600   4
  226            crexp_mul_wave                       73.100530                   302400   5
  227          m_sumb_d                              6.901748                          1   4
  228        fft3d_mpi                             0.065484                           22   3
  229          fftbas_plan_mpi                       0.064217                         22   4
  230            dfftw_execute                         0.021757                       66   5
  231            map_forward                           0.018574                       20   5
  232              map_gather                            0.001587                     10   6
  233              m_alltoallv_z                         0.014159                     10   6
  234              map_scatter                           0.002799                     10   6
  235            map_backward                          0.021037                       24   5
  236              map_gather                            0.004970                     12   6
  237              m_alltoallv_z                         0.014983                     12   6
  238              map_scatter                           0.001050                     12   6
  239        m_sumb_d                              0.001215                            5   3
  240        forhar                                0.026742                            2   3
  241          m_sumb_d                              0.002144                          2   4
  242        strehar                               0.004389                            1   3
  243          m_sumb_d                              0.000370                          1   4
  244        chggra                                0.015503                            1   3
  245          fft3d_mpi                             0.009945                          3   4
  246            fftbas_plan_mpi                       0.009799                        3   5
  247              dfftw_execute                         0.003231                      9   6
  248              map_backward                          0.001515                      2   6
  249                map_gather                            0.000359                    1   7
  250                m_alltoallv_z                         0.001100                    1   7
  251                map_scatter                           0.000056                    1   7
  252              map_forward                           0.004534                      4   6
  253                map_gather                            0.000511                    2   7
  254                m_alltoallv_z                         0.003417                    2   7
  255                map_scatter                           0.000597                    2   7
  256          m_sumb_d                              0.000012                          2   4
  257          pothar                                0.000465                          1   4
  258            m_sumb_d                              0.000320                        1   5
  259        m_bcast_d                             0.009195                            2   3
  260      potlok                                0.198755                              1   2
  261        fft3d_mpi                             0.095534                           26   3
  262          fftbas_plan_mpi                       0.088499                         26   4
  263            dfftw_execute                         0.033062                       78   5
  264            map_forward                           0.030624                       28   5
  265              map_gather                            0.002512                     16   6
  266              m_alltoallv_z                         0.021494                     16   6
  267              map_scatter                           0.006557                     16   6
  268            map_backward                          0.021243                       24   5
  269              map_gather                            0.005739                     12   6
  270              m_alltoallv_z                         0.014493                     12   6
  271              map_scatter                           0.000980                     12   6
  272        m_sumb_d                              0.000056                            5   3
  273        pothar                                0.000824                            1   3
  274          m_sumb_d                              0.000416                          1   4
  275        m_bcast_d                             0.021342                            2   3
  276      potlok_metagga                        0.000002                              1   2
  277      set_dd_magatom                        0.000377                              1   2
  278      set_dd_paw                            0.579092                              1   2
  279        set_rsgf_all                          0.006668                            1   3
  280        m_sumb_d                              0.565129                            8   3
  281      densta                                0.042255                              1   2
  282        m_sumb_d                              0.019071                           13   3
 
 Flat profile
 ============
 
             routine name                   CPU           calls
 ---------------------------------------------------------------
 fft3d                                 960.904244       62434
 calc_polarization                     536.335518           1
 gemm                                  452.993840     1061340
 proj1                                 435.286240       13035
 eddav                                 360.086465           9
 m_alltoall_d                          347.581363      206717
 work_mul_crexp                        322.434800     1061340
 crexp_mul_wave                        285.879902     1094940
 fftwav                                265.305062       31367
 vhamil                                171.255589       12635
 total_time                            134.197067           1
 m_bcast_z                             128.874574      105450
 orth1                                 117.444689       38305
 phase                                 114.658936        1451
 m_sumb_d                               97.029049       96841
 redis_pw                               45.631288       64993
 fornl                                  40.340170           1
 spher                                  40.253528          20
 fftext_mpi                             22.989878       31067
 eccp                                   20.367264        3600
 setdij_                                18.302841          29
 pdssyex_zheevx                         16.743283         900
 sphpro_fast                            16.675938           2
 lincom                                 13.677842        1000
 w1_copy                                 7.645105       42705
 hamiltmu                                5.117808       12635
 kinhamil                                3.165174       12635
 elmin                                   3.020791           1
 apply_precond                           2.675063        9035
 vnlac0                                  2.472561       12635
 overl1                                  2.118429       12635
 force_and_stress                        1.729187           1
 m_alltoallv_z                           1.507015         210
 pw_charge                               1.327036         300
 map_scatter                             1.172336         210
 overl                                   0.952296       21770
 augmentation_charge                     0.896523           1
 dfftw_execute                           0.750717         612
 setup_precond                           0.510334        3600
 redis_proj                              0.481932       74128
 m_bcast_d                               0.459811       25571
 map_gather                              0.394872         210
 fft3d_mpi                               0.375281       31271
 choleski                                0.304099         100
 strenl                                  0.286088           1
 newband                                 0.275841       13535
 fftwav_mpi                              0.197936       31367
 potlok                                  0.170671           2
 set_charge                              0.112242           1
 strkin                                  0.105762           1
 densta                                  0.102780          10
 fftbas_plan_mpi                         0.096446         204
 orthch                                  0.079480           1
 truncate_high_frequency_w1              0.058483       16235
 soft_charge                             0.041897           1
 w1_projall                              0.035205        9035
 set_dd_paw                              0.032514           3
 fewald                                  0.027745           1
 stufak                                  0.026283           2
 forhar                                  0.024598           2
 forloc                                  0.016502           1
 strelo                                  0.009825           1
 set_rsgf_all                            0.009648           3
 proj                                    0.006468          50
 inisym                                  0.005905           1
 chggra                                  0.005081           1
 map_forward                             0.004623         206
 strehar                                 0.004019           1
 depsum                                  0.003556           1
 map_backward                            0.001751         202
 fordep                                  0.001506           1
 pothar                                  0.001020           3
 set_dd_magatom                          0.000950           3
 fft_gq                                  0.000462           1
 rsp                                     0.000422           1
 vectorpot                               0.000416           2
 potlok_metagga                          0.000268           2
 rcp                                     0.000114           1
 posmap                                  0.000049           2
 crpa_reader                             0.000027           1
 FERMAT_RAZOR                            0.000019           1
 rotate_active_occupied_orbital          0.000001           1
 redis_pw_over_bands                     0.000000           1
 ---------------------------------------------------------------
  summed up times    5004.07234311104     
 
 Accumulative profile
 ====================
 
             routine name                   CPU           calls
 ---------------------------------------------------------------
 total_time                           5004.072343           1
 elmin                                2945.689691           1
 eddav                                2940.638657           9
 calc_polarization                    1438.430532           1
 hamiltmu                             1148.033056       12635
 fft3d                                 960.904244       62434
 vnlac0                                777.901201       12635
 fftwav_mpi                            768.073884       31367
 fftwav                                767.875948       31367
 proj1                                 721.166141       13035
 w1_projall                            554.416954        9035
 fftext_mpi                            481.536192       31067
 fft3d_mpi                             462.636399       31271
 gemm                                  452.993840     1061340
 m_alltoall_d                          347.581363      206717
 work_mul_crexp                        322.434800     1061340
 force_and_stress                      305.816382           1
 crexp_mul_wave                        285.879902     1094940
 redis_pw                              256.192316       64993
 strenl                                227.876549           1
 kinhamil                              191.640030       12635
 vhamil                                171.255589       12635
 redis_proj                            137.502267       74128
 m_bcast_z                             128.874574      105450
 newband                               119.036678       13535
 orth1                                 117.444689       38305
 phase                                 114.658936        1451
 m_sumb_d                               97.029049       96841
 fornl                                  44.773779           1
 spher                                  40.253528          20
 setdij_                                22.149063          29
 eccp                                   20.367264        3600
 proj                                   18.215181          50
 sphpro_fast                            17.417856           2
 pdssyex_zheevx                         16.743302         900
 lincom                                 13.677842        1000
 set_charge                             11.352690           1
 soft_charge                            10.172387           1
 w1_copy                                 7.645105       42705
 orthch                                  4.499570           1
 fordep                                  4.436559           1
 fftbas_plan_mpi                         3.927760         204
 apply_precond                           2.675063        9035
 overl1                                  2.118429       12635
 map_forward                             2.080528         206
 m_alltoallv_z                           1.507015         210
 set_dd_paw                              1.447645           3
 pw_charge                               1.327036         300
 map_scatter                             1.172336         210
 augmentation_charge                     1.042146           1
 map_backward                            1.000068         202
 overl                                   0.952296       21770
 dfftw_execute                           0.750717         612
 setup_precond                           0.510334        3600
 m_bcast_d                               0.459811       25571
 potlok                                  0.430172           2
 map_gather                              0.394872         210
 choleski                                0.304099         100
 densta                                  0.141389          10
 strkin                                  0.106819           1
 truncate_high_frequency_w1              0.058483       16235
 fft_gq                                  0.040229           1
 fewald                                  0.028740           1
 forhar                                  0.026742           2
 stufak                                  0.026283           2
 forloc                                  0.017738           1
 chggra                                  0.015503           1
 strelo                                  0.010249           1
 set_rsgf_all                            0.009648           3
 inisym                                  0.005954           1
 depsum                                  0.005791           1
 strehar                                 0.004389           1
 pothar                                  0.002106           3
 set_dd_magatom                          0.000950           3
 rsp                                     0.000422           1
 vectorpot                               0.000416           2
 potlok_metagga                          0.000268           2
 rcp                                     0.000114           1
 posmap                                  0.000049           2
 crpa_reader                             0.000027           1
 FERMAT_RAZOR                            0.000019           1
 rotate_active_occupied_orbital          0.000001           1
 redis_pw_over_bands                     0.000000           1
 ---------------------------------------------------------------
 
Profiling took   1.476808  0.805227  0.009851  0.004377 seconds
Profiling took   2.202965 seconds
