 vasp.6.2.0 18Jan21 (build Jun 21 2021 16:53:19) complex                        
  
 executed on    LinuxIFC_2020xeU1 date 2021.09.20  13:18:55
 running on   60 total cores
 distrk:  each k-point on   30 cores,    2 groups
 distr:  one band on NCORE=   1 cores,   30 groups


--------------------------------------------------------------------------------------------------------


 INCAR:
   IVDW = 11           (DFT-D3 method of method with no damping)
   ISPIN = 1 (Spin un-polarised DFT)
   ISTART = 1             (Read existing wavefunction
   ICHARG = 11         (Non-self-consistent: GGA/LDA band structures)
   LORBIT = 11
   LASPH = T
   GGA_COMPAT = .FALSE.
   LREAL = .FALSE.       (Projection operators: automatic)
   ENCUT = 708
   ENAUG = 708
   PREC = Accurate     (Precision level)
   LMAXMIX = 4
   LWAVE = .TRUE.        (Write WAVECAR or not)
   LCHARG = .TRUE.        (Write CHGCAR or not)
   ADDGRID = .TRUE.        (Increase grid
   LPLANE = .TRUE.      (Real space distribution
   NWRITE = 2           (Medium-level output)
   KPAR = 2           (Divides k-grid into separate groups)
   NSW = 0          (number of ionic steps)
   ISMEAR = 0            (gaussian smearing method )
   SIGMA = 0.05         (please check the width of the smearing)
   IBRION = -1            (Algorithm: 0-MD
   EDIFF = 1.0d-10
   KSPACING = 0.2
   LCALCPOL = T

 POTCAR:    PAW_PBE Zn 06Sep2000                  
 POTCAR:    PAW_PBE O 08Apr2002                   
 POTCAR:    PAW_PBE C 08Apr2002                   
 POTCAR:    PAW_PBE H 15Jun2001                   
 POTCAR:    PAW_PBE N 08Apr2002                   
 -----------------------------------------------------------------------------
|                                                                             |
|           W    W    AA    RRRRR   N    N  II  N    N   GGGG   !!!           |
|           W    W   A  A   R    R  NN   N  II  NN   N  G    G  !!!           |
|           W    W  A    A  R    R  N N  N  II  N N  N  G       !!!           |
|           W WW W  AAAAAA  RRRRR   N  N N  II  N  N N  G  GGG   !            |
|           WW  WW  A    A  R   R   N   NN  II  N   NN  G    G                |
|           W    W  A    A  R    R  N    N  II  N    N   GGGG   !!!           |
|                                                                             |
|     For optimal performance we recommend to set                             |
|       NCORE = 2 up to number-of-cores-per-socket                            |
|     NCORE specifies how many cores store one orbital (NPAR=cpu/NCORE).      |
|     This setting can greatly improve the performance of VASP for DFT.       |
|     The default, NCORE=1 might be grossly inefficient on modern             |
|     multi-core architectures or massively parallel machines. Do your        |
|     own testing! More info at https://www.vasp.at/wiki/index.php/NCORE      |
|     Unfortunately you need to use the default for GW and RPA                |
|     calculations (for HF NCORE is supported but not extensively tested      |
|     yet).                                                                   |
|                                                                             |
 -----------------------------------------------------------------------------

 POTCAR:    PAW_PBE Zn 06Sep2000                  
   SHA256 =  501fddbd8274dd8e9725d4f3de27861d7f1e553a7e18441bc79fed8f346e7f23 Zn/POTCAR             
   COPYR  = (c) Copyright 06Sep2000 Georg Kresse                                                    
   COPYR  = This file is part of the software VASP. Any use, copying, and all other rights are regul
   COPYR  = If you do not have a valid VASP license, you may not use, copy or distribute this file. 
   VRHFIN =Zn: d10 p2                                                                               
   LEXCH  = PE                                                                                      
   EATOM  =  1748.8345 eV,  128.5357 Ry                                                             
                                                                                                    
   TITEL  = PAW_PBE Zn 06Sep2000                                                                    
   LULTRA =        F    use ultrasoft PP ?                                                          
   IUNSCR =        1    unscreen: 0-lin 1-nonlin 2-no                                               
   RPACOR =    2.000    partial core radius                                                         
   POMASS =   65.390; ZVAL   =   12.000    mass and valenz                                          
   RCORE  =    2.300    outmost cutoff radius                                                       
   RWIGS  =    2.400; RWIGS  =    1.270    wigner-seitz radius (au A)                               
   ENMAX  =  276.723; ENMIN  =  207.542 eV                                                          
   RCLOC  =    1.828    cutoff for local pot                                                        
   LCOR   =        T    correct aug charges                                                         
   LPAW   =        T    paw PP                                                                      
   EAUG   =  575.892                                                                                
   DEXC   =    0.000                                                                                
   RMAX   =    2.347    core radius for proj-oper                                                   
   RAUG   =    1.300    factor for augmentation sphere                                              
   RDEP   =    2.324    radius for radial grids                                                     
   RDEPT  =    1.788    core radius for aug-charge                                                  
                                                                                                    
   Atomic configuration                                                                             
    9 entries                                                                                       
     n  l   j            E        occ.                                                              
     1  0  0.50     -9524.6913   2.0000                                                             
     2  0  0.50     -1158.1882   2.0000                                                             
     2  1  1.50     -1003.8506   6.0000                                                             
     3  0  0.50      -129.2194   2.0000                                                             
     3  1  1.50       -83.3890   6.0000                                                             
     3  2  2.50       -10.1410  10.0000                                                             
     4  0  0.50        -5.9785   2.0000                                                             
     4  1  0.50        -4.0817   0.0000                                                             
     4  3  2.50        -1.3606   0.0000                                                             
   Description                                                                                      
     l       E           TYP  RCUT    TYP  RCUT                                                     
     2    -10.1410010     23  2.300                                                                 
     2    -11.5015836     23  2.300                                                                 
     0     -5.9785163     23  2.300                                                                 
     0      1.1858015     23  2.300                                                                 
     1     -2.7211652     23  2.300                                                                 
     1     13.2444212     23  2.300                                                                 
  local pseudopotential read in
  partial core-charges read in
  partial kinetic energy density read in
  atomic valenz-charges read in
  non local Contribution for L=           2  read in
    real space projection operators read in
  non local Contribution for L=           2  read in
    real space projection operators read in
  non local Contribution for L=           0  read in
    real space projection operators read in
  non local Contribution for L=           0  read in
    real space projection operators read in
  non local Contribution for L=           1  read in
    real space projection operators read in
  non local Contribution for L=           1  read in
    real space projection operators read in
    PAW grid and wavefunctions read in
 
   number of l-projection  operators is LMAX  =           6
   number of lm-projection operators is LMMAX =          18
 
 POTCAR:    PAW_PBE O 08Apr2002                   
   SHA256 =  818f92134a0a090dccd8ba1447fa70422a3b330e708bb4f08108d8ae51209ddf O/POTCAR              
   COPYR  = (c) Copyright 08Apr2002 Georg Kresse                                                    
   COPYR  = This file is part of the software VASP. Any use, copying, and all other rights are regul
   COPYR  = If you do not have a valid VASP license, you may not use, copy or distribute this file. 
   VRHFIN =O: s2p4                                                                                  
   LEXCH  = PE                                                                                      
   EATOM  =   432.3788 eV,   31.7789 Ry                                                             
                                                                                                    
   TITEL  = PAW_PBE O 08Apr2002                                                                     
   LULTRA =        F    use ultrasoft PP ?                                                          
   IUNSCR =        1    unscreen: 0-lin 1-nonlin 2-no                                               
   RPACOR =    1.200    partial core radius                                                         
   POMASS =   16.000; ZVAL   =    6.000    mass and valenz                                          
   RCORE  =    1.520    outmost cutoff radius                                                       
   RWIGS  =    1.550; RWIGS  =    0.820    wigner-seitz radius (au A)                               
   ENMAX  =  400.000; ENMIN  =  300.000 eV                                                          
   ICORE  =        2    local potential                                                             
   LCOR   =        T    correct aug charges                                                         
   LPAW   =        T    paw PP                                                                      
   EAUG   =  605.392                                                                                
   DEXC   =    0.000                                                                                
   RMAX   =    1.553    core radius for proj-oper                                                   
   RAUG   =    1.300    factor for augmentation sphere                                              
   RDEP   =    1.550    radius for radial grids                                                     
   RDEPT  =    1.329    core radius for aug-charge                                                  
                                                                                                    
   Atomic configuration                                                                             
    4 entries                                                                                       
     n  l   j            E        occ.                                                              
     1  0  0.50      -514.6923   2.0000                                                             
     2  0  0.50       -23.9615   2.0000                                                             
     2  1  0.50        -9.0305   4.0000                                                             
     3  2  1.50        -9.5241   0.0000                                                             
   Description                                                                                      
     l       E           TYP  RCUT    TYP  RCUT                                                     
     0    -23.9615318     23  1.200                                                                 
     0     -9.5240782     23  1.200                                                                 
     1     -9.0304911     23  1.520                                                                 
     1      8.1634956     23  1.520                                                                 
     2     -9.5240782      7  1.500                                                                 
  local pseudopotential read in
  partial core-charges read in
  partial kinetic energy density read in
  kinetic energy density of atom read in
  atomic valenz-charges read in
  non local Contribution for L=           0  read in
    real space projection operators read in
  non local Contribution for L=           0  read in
    real space projection operators read in
  non local Contribution for L=           1  read in
    real space projection operators read in
  non local Contribution for L=           1  read in
    real space projection operators read in
    PAW grid and wavefunctions read in
 
   number of l-projection  operators is LMAX  =           4
   number of lm-projection operators is LMMAX =           8
 
 POTCAR:    PAW_PBE C 08Apr2002                   
   SHA256 =  253f7b50bb8d59471dbedb8285d89021f4a42ed1a2c5d38a03a736e69125dd95 C/POTCAR              
   COPYR  = (c) Copyright 08Apr2002 Georg Kresse                                                    
   COPYR  = This file is part of the software VASP. Any use, copying, and all other rights are regul
   COPYR  = If you do not have a valid VASP license, you may not use, copy or distribute this file. 
   VRHFIN =C: s2p2                                                                                  
   LEXCH  = PE                                                                                      
   EATOM  =   147.1560 eV,   10.8157 Ry                                                             
                                                                                                    
   TITEL  = PAW_PBE C 08Apr2002                                                                     
   LULTRA =        F    use ultrasoft PP ?                                                          
   IUNSCR =        1    unscreen: 0-lin 1-nonlin 2-no                                               
   RPACOR =    1.200    partial core radius                                                         
   POMASS =   12.011; ZVAL   =    4.000    mass and valenz                                          
   RCORE  =    1.500    outmost cutoff radius                                                       
   RWIGS  =    1.630; RWIGS  =    0.863    wigner-seitz radius (au A)                               
   ENMAX  =  400.000; ENMIN  =  300.000 eV                                                          
   ICORE  =        2    local potential                                                             
   LCOR   =        T    correct aug charges                                                         
   LPAW   =        T    paw PP                                                                      
   EAUG   =  644.873                                                                                
   DEXC   =    0.000                                                                                
   RMAX   =    1.529    core radius for proj-oper                                                   
   RAUG   =    1.300    factor for augmentation sphere                                              
   RDEP   =    1.501    radius for radial grids                                                     
   RDEPT  =    1.300    core radius for aug-charge                                                  
                                                                                                    
   Atomic configuration                                                                             
    4 entries                                                                                       
     n  l   j            E        occ.                                                              
     1  0  0.50      -273.3789   2.0000                                                             
     2  0  0.50       -13.7508   2.0000                                                             
     2  1  0.50        -5.2854   2.0000                                                             
     3  2  1.50        -5.4423   0.0000                                                             
   Description                                                                                      
     l       E           TYP  RCUT    TYP  RCUT                                                     
     0    -13.7508458     23  1.200                                                                 
     0     -8.2022199     23  1.200                                                                 
     1     -5.2854383     23  1.500                                                                 
     1     34.0145650     23  1.500                                                                 
     2     -5.4423304      7  1.500                                                                 
  local pseudopotential read in
  partial core-charges read in
  partial kinetic energy density read in
  atomic valenz-charges read in
  non local Contribution for L=           0  read in
    real space projection operators read in
  non local Contribution for L=           0  read in
    real space projection operators read in
  non local Contribution for L=           1  read in
    real space projection operators read in
  non local Contribution for L=           1  read in
    real space projection operators read in
    PAW grid and wavefunctions read in
 
   number of l-projection  operators is LMAX  =           4
   number of lm-projection operators is LMMAX =           8
 
 POTCAR:    PAW_PBE H 15Jun2001                   
   SHA256 =  030f79b5d3ab3cf0e668861823c8fb652ff669f3e15e46930bd03bfd63a607b6 H/POTCAR              
   COPYR  = (c) Copyright 15Jun2001 Georg Kresse                                                    
   COPYR  = This file is part of the software VASP. Any use, copying, and all other rights are regul
   COPYR  = If you do not have a valid VASP license, you may not use, copy or distribute this file. 
   VRHFIN =H: ultrasoft test                                                                        
   LEXCH  = PE                                                                                      
   EATOM  =    12.4884 eV,    0.9179 Ry                                                             
                                                                                                    
   TITEL  = PAW_PBE H 15Jun2001                                                                     
   LULTRA =        F    use ultrasoft PP ?                                                          
   IUNSCR =        0    unscreen: 0-lin 1-nonlin 2-no                                               
   RPACOR =    0.000    partial core radius                                                         
   POMASS =    1.000; ZVAL   =    1.000    mass and valenz                                          
   RCORE  =    1.100    outmost cutoff radius                                                       
   RWIGS  =    0.700; RWIGS  =    0.370    wigner-seitz radius (au A)                               
   ENMAX  =  250.000; ENMIN  =  200.000 eV                                                          
   RCLOC  =    0.701    cutoff for local pot                                                        
   LCOR   =        T    correct aug charges                                                         
   LPAW   =        T    paw PP                                                                      
   EAUG   =  400.000                                                                                
   RMAX   =    1.123    core radius for proj-oper                                                   
   RAUG   =    1.200    factor for augmentation sphere                                              
   RDEP   =    1.112    radius for radial grids                                                     
   RDEPT  =    0.926    core radius for aug-charge                                                  
                                                                                                    
   Atomic configuration                                                                             
    2 entries                                                                                       
     n  l   j            E        occ.                                                              
     1  0  0.50        -6.4927   1.0000                                                             
     2  1  0.50        -3.4015   0.0000                                                             
   Description                                                                                      
     l       E           TYP  RCUT    TYP  RCUT                                                     
     0     -6.4927494     23  1.100                                                                 
     0      6.8029130     23  1.100                                                                 
     1     -4.0817478     23  1.100                                                                 
  local pseudopotential read in
  atomic valenz-charges read in
  non local Contribution for L=           0  read in
    real space projection operators read in
  non local Contribution for L=           0  read in
    real space projection operators read in
  non local Contribution for L=           1  read in
    real space projection operators read in
    PAW grid and wavefunctions read in
 
   number of l-projection  operators is LMAX  =           3
   number of lm-projection operators is LMMAX =           5
 
 POTCAR:    PAW_PBE N 08Apr2002                   
   SHA256 =  e053789ff3a61a86a1b75d8a110fcc91f86041011e7b0817c7c99e4e8a6349d7 N/POTCAR              
   COPYR  = (c) Copyright 08Apr2002 Georg Kresse                                                    
   COPYR  = This file is part of the software VASP. Any use, copying, and all other rights are regul
   COPYR  = If you do not have a valid VASP license, you may not use, copy or distribute this file. 
   VRHFIN =N: s2p3                                                                                  
   LEXCH  = PE                                                                                      
   EATOM  =   264.5486 eV,   19.4438 Ry                                                             
                                                                                                    
   TITEL  = PAW_PBE N 08Apr2002                                                                     
   LULTRA =        F    use ultrasoft PP ?                                                          
   IUNSCR =        1    unscreen: 0-lin 1-nonlin 2-no                                               
   RPACOR =    1.200    partial core radius                                                         
   POMASS =   14.001; ZVAL   =    5.000    mass and valenz                                          
   RCORE  =    1.500    outmost cutoff radius                                                       
   RWIGS  =    1.400; RWIGS  =    0.741    wigner-seitz radius (au A)                               
   ENMAX  =  400.000; ENMIN  =  300.000 eV                                                          
   ICORE  =        2    local potential                                                             
   LCOR   =        T    correct aug charges                                                         
   LPAW   =        T    paw PP                                                                      
   EAUG   =  627.112                                                                                
   DEXC   =    0.000                                                                                
   RMAX   =    1.529    core radius for proj-oper                                                   
   RAUG   =    1.300    factor for augmentation sphere                                              
   RDEP   =    1.514    radius for radial grids                                                     
   RDEPT  =    1.338    core radius for aug-charge                                                  
                                                                                                    
   Atomic configuration                                                                             
    4 entries                                                                                       
     n  l   j            E        occ.                                                              
     1  0  0.50      -384.7179   2.0000                                                             
     2  0  0.50       -18.5828   2.0000                                                             
     2  1  0.50        -7.0898   3.0000                                                             
     3  2  1.50        -6.8029   0.0000                                                             
   Description                                                                                      
     l       E           TYP  RCUT    TYP  RCUT                                                     
     0    -18.5828119     23  1.200                                                                 
     0    -13.5018863     23  1.200                                                                 
     1     -7.0897853     23  1.500                                                                 
     1      9.5240782     23  1.500                                                                 
     2     -6.8029130      7  1.500                                                                 
  local pseudopotential read in
  partial core-charges read in
  partial kinetic energy density read in
  atomic valenz-charges read in
  non local Contribution for L=           0  read in
    real space projection operators read in
  non local Contribution for L=           0  read in
    real space projection operators read in
  non local Contribution for L=           1  read in
    real space projection operators read in
  non local Contribution for L=           1  read in
    real space projection operators read in
    PAW grid and wavefunctions read in
 
   number of l-projection  operators is LMAX  =           4
   number of lm-projection operators is LMMAX =           8
 
 -----------------------------------------------------------------------------
|                                                                             |
|               ----> ADVICE to this user running VASP <----                  |
|                                                                             |
|     You have a (more or less) 'large supercell' and for larger cells it     |
|     might be more efficient to use real-space projection operators.         |
|     Therefore, try LREAL= Auto in the INCAR file.                           |
|     Mind: For very accurate calculation, you might also keep the            |
|     reciprocal projection scheme (i.e. LREAL=.FALSE.).                      |
|                                                                             |
 -----------------------------------------------------------------------------

  PAW_PBE Zn 06Sep2000                  :
 energy of atom  1       EATOM=-1748.8345
 kinetic energy error for atom=    0.0006 (will be added to EATOM!!)
  PAW_PBE O 08Apr2002                   :
 energy of atom  2       EATOM= -432.3788
 kinetic energy error for atom=    0.0085 (will be added to EATOM!!)
  PAW_PBE C 08Apr2002                   :
 energy of atom  3       EATOM= -147.1560
 kinetic energy error for atom=    0.0031 (will be added to EATOM!!)
  PAW_PBE H 15Jun2001                   :
 energy of atom  4       EATOM=  -12.4884
 kinetic energy error for atom=    0.0002 (will be added to EATOM!!)
  PAW_PBE N 08Apr2002                   :
 energy of atom  5       EATOM= -264.5486
 kinetic energy error for atom=    0.0057 (will be added to EATOM!!)
 
 
 POSCAR: crystal
  positions in direct lattice
  velocities in cartesian coordinates
  No initial velocities read in
 exchange correlation table for  LEXCH =        8
   RHO(1)=    0.500       N(1)  =     2000
   RHO(2)=  100.500       N(2)  =     4000
 


--------------------------------------------------------------------------------------------------------


 ion  position               nearest neighbor table
   1  0.336  0.331  0.587-   7 2.12  28 2.13  31 2.13  14 2.13  42 2.14  19 2.14
   2  0.004  0.336  0.087-   8 2.12  29 2.13  32 2.13  15 2.13  37 2.14  20 2.14
   3  0.669  0.004  0.587-   9 2.12  30 2.13  33 2.13  16 2.13  38 2.14  21 2.14
   4  0.664  0.669  0.087-  10 2.12  25 2.13  34 2.13  17 2.13  39 2.14  22 2.14
   5  0.996  0.664  0.587-  11 2.12  26 2.13  35 2.13  18 2.13  40 2.14  23 2.14
   6  0.331  0.996  0.087-  12 2.12  27 2.13  36 2.13  13 2.13  41 2.14  24 2.14
   7  0.426  0.262  0.443-  43 1.28   1 2.12
   8  0.164  0.426  0.943-  44 1.28   2 2.12
   9  0.738  0.164  0.443-  45 1.28   3 2.12
  10  0.574  0.738  0.943-  46 1.28   4 2.12
  11  0.836  0.574  0.443-  47 1.28   5 2.12
  12  0.262  0.836  0.943-  48 1.28   6 2.12
  13  0.431  0.155  0.232-  43 1.26   6 2.13
  14  0.276  0.431  0.732-  44 1.26   1 2.13
  15  0.845  0.276  0.232-  45 1.26   2 2.13
  16  0.569  0.845  0.732-  46 1.26   3 2.13
  17  0.724  0.569  0.232-  47 1.26   4 2.13
  18  0.155  0.724  0.732-  48 1.26   5 2.13
  19  0.400  0.492  0.441-  49 1.28   1 2.14
  20  0.908  0.400  0.941-  50 1.28   2 2.14
  21  0.508  0.908  0.441-  51 1.28   3 2.14
  22  0.600  0.508  0.941-  52 1.28   4 2.14
  23  0.092  0.600  0.441-  53 1.28   5 2.14
  24  0.492  0.092  0.941-  54 1.28   6 2.14
  25  0.503  0.605  0.229-  49 1.26   4 2.13
  26  0.898  0.503  0.729-  50 1.26   5 2.13
  27  0.395  0.898  0.229-  51 1.26   6 2.13
  28  0.497  0.395  0.729-  52 1.26   1 2.13
  29  0.102  0.497  0.229-  53 1.26   2 2.13
  30  0.605  0.102  0.729-  54 1.26   3 2.13
  31  0.173  0.234  0.448-  55 1.27   1 2.13
  32  0.939  0.173  0.948-  56 1.27   2 2.13
  33  0.766  0.939  0.448-  57 1.27   3 2.13
  34  0.827  0.766  0.948-  58 1.27   4 2.13
  35  0.061  0.827  0.448-  59 1.27   5 2.13
  36  0.234  0.061  0.948-  60 1.27   6 2.13
  37  0.070  0.241  0.234-  55 1.28   2 2.14
  38  0.829  0.070  0.734-  56 1.28   3 2.14
  39  0.759  0.829  0.234-  57 1.28   4 2.14
  40  0.930  0.759  0.734-  58 1.28   5 2.14
  41  0.171  0.930  0.234-  59 1.28   6 2.14
  42  0.241  0.171  0.734-  60 1.28   1 2.14
  43  0.374  0.185  0.329-  61 1.10  13 1.26   7 1.28
  44  0.188  0.374  0.829-  62 1.10  14 1.26   8 1.28
  45  0.815  0.188  0.329-  63 1.10  15 1.26   9 1.28
  46  0.626  0.815  0.829-  64 1.10  16 1.26  10 1.28
  47  0.812  0.626  0.329-  65 1.10  17 1.26  11 1.28
  48  0.185  0.812  0.829-  66 1.10  18 1.26  12 1.28
  49  0.471  0.514  0.321-  67 1.10  25 1.26  19 1.28
  50  0.957  0.471  0.821-  68 1.10  26 1.26  20 1.28
  51  0.486  0.957  0.321-  69 1.10  27 1.26  21 1.28
  52  0.529  0.486  0.821-  70 1.10  28 1.26  22 1.28
  53  0.043  0.529  0.321-  71 1.10  29 1.26  23 1.28
  54  0.514  0.043  0.821-  72 1.10  30 1.26  24 1.28
  55  0.141  0.291  0.353-  73 1.10  31 1.27  37 1.28
  56  0.850  0.141  0.853-  74 1.10  32 1.27  38 1.28
  57  0.709  0.850  0.353-  75 1.10  33 1.27  39 1.28
  58  0.859  0.709  0.853-  76 1.10  34 1.27  40 1.28
  59  0.150  0.859  0.353-  77 1.10  35 1.27  41 1.28
  60  0.291  0.150  0.853-  78 1.10  36 1.27  42 1.28
  61  0.273  0.145  0.317-  43 1.10
  62  0.128  0.273  0.817-  44 1.10
  63  0.855  0.128  0.317-  45 1.10
  64  0.727  0.855  0.817-  46 1.10
  65  0.872  0.727  0.317-  47 1.10
  66  0.145  0.872  0.817-  48 1.10
  67  0.505  0.450  0.298-  49 1.10
  68  0.055  0.505  0.798-  50 1.10
  69  0.550  0.055  0.298-  51 1.10
  70  0.495  0.550  0.798-  52 1.10
  71  0.945  0.495  0.298-  53 1.10
  72  0.450  0.945  0.798-  54 1.10
  73  0.176  0.390  0.372-  55 1.10
  74  0.786  0.176  0.872-  56 1.10
  75  0.610  0.786  0.372-  57 1.10
  76  0.824  0.610  0.872-  58 1.10
  77  0.214  0.824  0.372-  59 1.10
  78  0.390  0.214  0.872-  60 1.10
  79  0.577  0.306  0.499- 104 1.05
  80  0.271  0.577  0.999- 103 1.05
  81  0.694  0.271  0.499- 104 1.05
  82  0.423  0.694  0.999- 103 1.05
  83  0.729  0.423  0.499- 104 1.05
  84  0.306  0.729  0.999- 103 1.05
  85  0.333  0.667  0.160- 103 1.02
  86  0.667  0.333  0.660- 104 1.02
  87  0.359  0.603  0.498- 105 1.05
  88  0.756  0.359  0.998- 106 1.05
  89  0.397  0.756  0.498- 105 1.05
  90  0.641  0.397  0.998- 106 1.05
  91  0.244  0.641  0.498- 105 1.05
  92  0.603  0.244  0.998- 106 1.05
  93  0.333  0.667  0.660- 105 1.02
  94  0.667  0.333  0.160- 106 1.02
  95  0.027  0.089  0.176- 107 1.05
  96  0.938  0.027  0.676- 108 1.05
  97  0.911  0.938  0.176- 107 1.05
  98  0.973  0.911  0.676- 108 1.05
  99  0.062  0.973  0.176- 107 1.05
 100  0.089  0.062  0.676- 108 1.05
 101  1.000  1.000  0.015- 107 1.02
 102  1.000  0.000  0.515- 108 1.02
 103  0.333  0.667  0.038-  85 1.02  84 1.05  82 1.05  80 1.05
 104  0.667  0.333  0.538-  86 1.02  79 1.05  83 1.05  81 1.05
 105  0.333  0.667  0.538-  93 1.02  91 1.05  89 1.05  87 1.05
 106  0.667  0.333  0.038-  94 1.02  90 1.05  92 1.05  88 1.05
 107  0.000  1.000  0.137- 101 1.02  99 1.05  95 1.05  97 1.05
 108  0.000  0.000  0.637- 102 1.02 100 1.05  96 1.05  98 1.05
 
  LATTYP: Found a hexagonal cell.
 ALAT       =    12.5583089247
 C/A-ratio  =     0.6674146882
  
  Lattice vectors:
  
 A1 = (  12.5583089247,  -0.0000105085,  -0.0000092908)
 A2 = (  -6.2791571398,  10.8758170823,   0.0000056447)
 A3 = (  -0.0000060819,   0.0000007306,   8.3815998347)


Analysis of symmetry for initial positions (statically):
=====================================================================
 Subroutine PRICEL returns:
 Original cell was already a primitive cell.
 

 Routine SETGRP: Setting up the symmetry group for a 
 hexagonal supercell.


 Subroutine GETGRP returns: Found  6 space group operations
 (whereof  3 operations were pure point group operations)
 out of a pool of 24 trial point group operations.


The static configuration has the point symmetry C_3 .
 The point group associated with its full space group is C_6 .


Analysis of symmetry for dynamics (positions and initial velocities):
=====================================================================
 Subroutine PRICEL returns:
 Original cell was already a primitive cell.
 

 Routine SETGRP: Setting up the symmetry group for a 
 hexagonal supercell.


 Subroutine GETGRP returns: Found  6 space group operations
 (whereof  3 operations were pure point group operations)
 out of a pool of 24 trial point group operations.


The dynamic configuration has the point symmetry C_3 .
 The point group associated with its full space group is C_6 .


 Subroutine INISYM returns: Found  6 space group operations
 (whereof  3 operations are pure point group operations),
 and found     1 'primitive' translations


----------------------------------------------------------------------------------------

                                     Primitive cell                                     

  volume of cell :    1144.7740

  direct lattice vectors                    reciprocal lattice vectors
    12.558308925 -0.000010509 -0.000009291     0.079628594  0.045973599  0.000000054
    -6.279157140 10.875817082  0.000005645     0.000000077  0.091947159 -0.000000008
    -0.000006082  0.000000731  8.381599835     0.000000088 -0.000000011  0.119308965

  length of vectors
    12.558308925 12.558312450  8.381599835     0.091947185  0.091947159  0.119308965

  position of ions in fractional coordinates (direct lattice)
     0.335534202  0.331118198  0.586930404
     0.004415809  0.335534316  0.086930578
     0.668881074  0.004415727  0.586930591
     0.664465391  0.668881571  0.086930463
     0.995583904  0.664465855  0.586930556
     0.331118258  0.995584162  0.086930497
     0.425968915  0.261962493  0.442761597
     0.164006567  0.425969672  0.942761804
     0.738036881  0.164006620  0.442762426
     0.574030138  0.738037349  0.942762168
     0.835992683  0.574030094  0.442761805
     0.261962461  0.835993442  0.942761930
     0.430655588  0.154774122  0.232130089
     0.275881559  0.430655795  0.732129748
     0.845225501  0.275881894  0.232130022
     0.569343661  0.845226071  0.732129856
     0.724117554  0.569344245  0.232129610
     0.154773791  0.724118212  0.732130177
     0.400247505  0.492155770  0.441257460
     0.908091565  0.400248129  0.941257542
     0.507843280  0.908091511  0.441257645
     0.599751657  0.507843704  0.941257264
     0.091907580  0.599751958  0.441257487
     0.492155219  0.091907896  0.941257812
     0.503377995  0.605052020  0.229026532
     0.898325942  0.503378363  0.729026498
     0.394947385  0.898326356  0.229026442
     0.496621226  0.394947775  0.729026311
     0.101673991  0.496622052  0.229026561
     0.605051899  0.101674153  0.729026730
     0.172931882  0.233578590  0.447543595
     0.939353012  0.172931979  0.947543552
     0.766421003  0.939353509  0.447543405
     0.827067502  0.766421387  0.947543616
     0.060646136  0.827067865  0.447543686
     0.233578303  0.060646217  0.947543582
     0.070252805  0.241393017  0.233638576
     0.828859492  0.070253168  0.733638557
     0.758606446  0.828859594  0.233638445
     0.929746569  0.758606838  0.733638643
     0.171139595  0.929746791  0.233638955
     0.241392510  0.171139924  0.733638801
     0.373650873  0.185435561  0.329227716
     0.188215588  0.373651147  0.829227640
     0.814564323  0.188215901  0.329227676
     0.626348362  0.814564423  0.829228001
     0.811783860  0.626349132  0.329227791
     0.185434803  0.811784301  0.829227582
     0.470804537  0.514167734  0.321207367
     0.956636898  0.470805012  0.821206993
     0.485831747  0.956637582  0.321206933
     0.529194867  0.485832207  0.821207584
     0.043362869  0.529195693  0.321207862
     0.514167251  0.043362706  0.821207547
     0.141191168  0.291216976  0.352903783
     0.849974045  0.141191345  0.852903208
     0.708782477  0.849974487  0.352903413
     0.858808409  0.708783309  0.852903506
     0.150025231  0.858808887  0.352902859
     0.291216862  0.150025504  0.852903346
     0.273278848  0.145015804  0.316964035
     0.128263339  0.273279170  0.816964995
     0.854984067  0.128263798  0.316964394
     0.726720403  0.854984256  0.816964076
     0.871735832  0.726720768  0.316965151
     0.145015177  0.871736151  0.816964608
     0.505399832  0.450270261  0.298446959
     0.055129240  0.505399863  0.798446476
     0.549729111  0.055129897  0.298447413
     0.494599374  0.549729707  0.798447113
     0.944869720  0.494599931  0.298446216
     0.450270014  0.944869800  0.798446938
     0.176204547  0.390185305  0.372337631
     0.786019543  0.176205361  0.872337211
     0.609813901  0.786019953  0.372336988
     0.823794605  0.609814449  0.872337894
     0.213979865  0.823794658  0.372337111
     0.390185233  0.213980077  0.872336619
     0.577397166  0.306241070  0.498667264
     0.271155628  0.577396565  0.998666370
     0.693759138  0.271155705  0.498666409
     0.422602949  0.693759171  0.998666648
     0.728844032  0.422603368  0.498666168
     0.306240823  0.728844087  0.998666844
     0.333332684  0.666666878  0.159949456
     0.666666122  0.333333223  0.659949439
     0.358794462  0.603121380  0.498384293
     0.755673639  0.358794945  0.998384306
     0.396878257  0.755672477  0.498384936
     0.641206567  0.396876634  0.998385807
     0.244330563  0.641206419  0.498386448
     0.603122520  0.244328611  0.998385403
     0.333333025  0.666666630  0.659790664
     0.666665985  0.333333300  0.159790654
     0.027303935  0.089400111  0.175998120
     0.937903773  0.027304069  0.675998318
     0.910598653  0.937903741  0.175998936
     0.972694878  0.910599502  0.675998296
     0.062093551  0.972696530  0.175997395
     0.089397741  0.062094413  0.675997797
     0.999999475  0.999999866  0.014752230
     0.999999597  0.000000167  0.514752181
     0.333332808  0.666667236  0.038063060
     0.666664902  0.333332984  0.538063053
     0.333327908  0.666665520  0.537838829
     0.666662986  0.333334113  0.037838819
     0.000003149  0.999999816  0.136658619
     0.000001831  0.000001945  0.636658588

  ion indices of the primitive-cell ions
   primitive index   ion index
                 1           1
                 2           2
                 3           3
                 4           4
                 5           5
                 6           6
                 7           7
                 8           8
                 9           9
                10          10
                11          11
                12          12
                13          13
                14          14
                15          15
                16          16
                17          17
                18          18
                19          19
                20          20
                21          21
                22          22
                23          23
                24          24
                25          25
                26          26
                27          27
                28          28
                29          29
                30          30
                31          31
                32          32
                33          33
                34          34
                35          35
                36          36
                37          37
                38          38
                39          39
                40          40
                41          41
                42          42
                43          43
                44          44
                45          45
                46          46
                47          47
                48          48
                49          49
                50          50
                51          51
                52          52
                53          53
                54          54
                55          55
                56          56
                57          57
                58          58
                59          59
                60          60
                61          61
                62          62
                63          63
                64          64
                65          65
                66          66
                67          67
                68          68
                69          69
                70          70
                71          71
                72          72
                73          73
                74          74
                75          75
                76          76
                77          77
                78          78
                79          79
                80          80
                81          81
                82          82
                83          83
                84          84
                85          85
                86          86
                87          87
                88          88
                89          89
                90          90
                91          91
                92          92
                93          93
                94          94
                95          95
                96          96
                97          97
                98          98
                99          99
               100         100
               101         101
               102         102
               103         103
               104         104
               105         105
               106         106
               107         107
               108         108

----------------------------------------------------------------------------------------

 
 -----------------------------------------------------------------------------
|                                                                             |
|           W    W    AA    RRRRR   N    N  II  N    N   GGGG   !!!           |
|           W    W   A  A   R    R  NN   N  II  NN   N  G    G  !!!           |
|           W    W  A    A  R    R  N N  N  II  N N  N  G       !!!           |
|           W WW W  AAAAAA  RRRRR   N  N N  II  N  N N  G  GGG   !            |
|           WW  WW  A    A  R   R   N   NN  II  N   NN  G    G                |
|           W    W  A    A  R    R  N    N  II  N    N   GGGG   !!!           |
|                                                                             |
|     The requested file  could not be found or opened for reading            |
|     k-point information. Automatic k-point generation is used as a          |
|     fallback, which may lead to unwanted results.                           |
|                                                                             |
 -----------------------------------------------------------------------------

 

Automatic generation of k-mesh.
 Grid dimensions derived from KSPACING:
 generate k-points for:    3    3    4

 Generating k-lattice:

  Cartesian coordinates                     Fractional coordinates (reciprocal lattice)
     0.026542865  0.015324533  0.000000018     0.333333333  0.000000000  0.000000000
     0.000000026  0.030649053 -0.000000003    -0.000000000  0.333333333  0.000000000
     0.000000022 -0.000000003  0.029827241     0.000000000  0.000000000  0.250000000

  Length of vectors
     0.030649062  0.030649053  0.029827241

  Shift w.r.t. Gamma in fractional coordinates (k-lattice)
     0.000000000  0.000000000  0.000000000

 
 Subroutine IBZKPT returns following result:
 ===========================================
 
 Found      9 irreducible k-points:
 
 Following reciprocal coordinates:
            Coordinates               Weight
  0.000000  0.000000  0.000000      1.000000
  0.333333 -0.000000  0.000000      6.000000
  0.333333  0.333333 -0.000000      2.000000
  0.000000  0.000000  0.250000      2.000000
  0.333333 -0.000000  0.250000     12.000000
  0.333333  0.333333  0.250000      4.000000
  0.000000  0.000000  0.500000      1.000000
  0.333333 -0.000000  0.500000      6.000000
  0.333333  0.333333  0.500000      2.000000
 
 Following cartesian coordinates:
            Coordinates               Weight
  0.000000  0.000000  0.000000      1.000000
  0.026543  0.015325  0.000000      6.000000
  0.026543  0.045974  0.000000      2.000000
  0.000000 -0.000000  0.029827      2.000000
  0.026543  0.015325  0.029827     12.000000
  0.026543  0.045974  0.029827      4.000000
  0.000000 -0.000000  0.059654      1.000000
  0.026543  0.015325  0.059655      6.000000
  0.026543  0.045974  0.059654      2.000000
 
 
 Subroutine IBZKPT_HF returns following result:
 ==============================================
 
 Found     36 k-points in 1st BZ
 the following     36 k-points will be used (e.g. in the exchange kernel)
 Following reciprocal coordinates:   # in IRBZ
  0.000000  0.000000  0.000000    0.02777778   1 t-inv F
  0.333333 -0.000000  0.000000    0.02777778   2 t-inv F
  0.333333  0.333333 -0.000000    0.02777778   3 t-inv F
  0.000000  0.000000  0.250000    0.02777778   4 t-inv F
  0.333333 -0.000000  0.250000    0.02777778   5 t-inv F
  0.333333  0.333333  0.250000    0.02777778   6 t-inv F
  0.000000  0.000000  0.500000    0.02777778   7 t-inv F
  0.333333 -0.000000  0.500000    0.02777778   8 t-inv F
  0.333333  0.333333  0.500000    0.02777778   9 t-inv F
 -0.333333  0.333333  0.000000    0.02777778   2 t-inv F
 -0.000000 -0.333333  0.000000    0.02777778   2 t-inv F
  0.000000  0.333333  0.000000    0.02777778   2 t-inv F
 -0.333333  0.000000  0.000000    0.02777778   2 t-inv F
  0.333333 -0.333333  0.000000    0.02777778   2 t-inv F
 -0.333333  0.666667 -0.000000    0.02777778   3 t-inv F
 -0.333333  0.333333  0.250000    0.02777778   5 t-inv F
 -0.000000 -0.333333  0.250000    0.02777778   5 t-inv F
  0.000000  0.333333  0.250000    0.02777778   5 t-inv F
 -0.333333  0.000000  0.250000    0.02777778   5 t-inv F
  0.333333 -0.333333  0.250000    0.02777778   5 t-inv F
 -0.333333  0.666667  0.250000    0.02777778   6 t-inv F
 -0.333333  0.333333  0.500000    0.02777778   8 t-inv F
 -0.000000 -0.333333  0.500000    0.02777778   8 t-inv F
  0.000000  0.333333  0.500000    0.02777778   8 t-inv F
 -0.333333  0.000000  0.500000    0.02777778   8 t-inv F
  0.333333 -0.333333  0.500000    0.02777778   8 t-inv F
 -0.333333  0.666667  0.500000    0.02777778   9 t-inv F
 -0.000000 -0.000000 -0.250000    0.02777778   4 t-inv T
 -0.333333  0.000000 -0.250000    0.02777778   5 t-inv T
  0.333333 -0.333333 -0.250000    0.02777778   5 t-inv T
  0.000000  0.333333 -0.250000    0.02777778   5 t-inv T
 -0.000000 -0.333333 -0.250000    0.02777778   5 t-inv T
  0.333333 -0.000000 -0.250000    0.02777778   5 t-inv T
 -0.333333  0.333333 -0.250000    0.02777778   5 t-inv T
 -0.333333 -0.333333 -0.250000    0.02777778   6 t-inv T
  0.333333 -0.666667 -0.250000    0.02777778   6 t-inv T


--------------------------------------------------------------------------------------------------------




 Dimension of arrays:
   k-points           NKPTS =      9   k-points in BZ     NKDIM =      9   number of bands    NBANDS=    300
   number of dos      NEDOS =    301   number of ions     NIONS =    108
   non local maximal  LDIM  =      6   non local SUM 2l+1 LMDIM =     18
   total plane-waves  NPLWV = ******
   max r-space proj   IRMAX =      1   max aug-charges    IRDMAX= 209202
   dimension x,y,z NGX =   112 NGY =  112 NGZ =   80
   dimension x,y,z NGXF=   224 NGYF=  224 NGZF=  160
   support grid    NGXF=   448 NGYF=  448 NGZF=  320
   ions per type =               6  36  18  42   6
   NGX,Y,Z   is equivalent  to a cutoff of  14.83, 14.83, 15.87 a.u.
   NGXF,Y,Z  is equivalent  to a cutoff of  29.65, 29.65, 31.74 a.u.

 SYSTEM =  unknown system                          
 POSCAR =  crystal                                 

 Startparameter for this run:
   NWRITE =      2    write-flag & timer
   PREC   = accura    normal or accurate (medium, high low for compatibility)
   ISTART =      1    job   : 0-new  1-cont  2-samecut
   ICHARG =     11    charge: 1-file 2-atom 10-const
   ISPIN  =      1    spin polarized calculation?
   LNONCOLLINEAR =      F non collinear calculations
   LSORBIT =      F    spin-orbit coupling
   INIWAV =      1    electr: 0-lowe 1-rand  2-diag
   LASPH  =      T    aspherical Exc in radial PAW
   METAGGA=      F    non-selfconsistent MetaGGA calc.

 Electronic Relaxation 1
   ENCUT  =  708.0 eV  52.04 Ry    7.21 a.u.  27.25 27.25 18.18*2*pi/ulx,y,z
   ENINI  =  708.0     initial cutoff
   ENAUG  =  708.0 eV  augmentation charge cutoff
   NELM   =     60;   NELMIN=  2; NELMDL=  0     # of ELM steps 
   EDIFF  = 0.1E-09   stopping-criterion for ELM
   LREAL  =      F    real-space projection
   NLSPLINE    = F    spline interpolate recip. space projectors
   LCOMPAT=      F    compatible to vasp.4.4
   GGA_COMPAT  = F    GGA compatible to vasp.4.4-vasp.4.6
   LMAXPAW     = -100 max onsite density
   LMAXMIX     =    4 max onsite mixed and CHGCAR
   VOSKOWN=      0    Vosko Wilk Nusair interpolation
   ROPT   =    0.00000   0.00000   0.00000   0.00000
   ROPT   =    0.00000
 Ionic relaxation
   EDIFFG = 0.1E-08   stopping-criterion for IOM
   NSW    =      0    number of steps for IOM
   NBLOCK =      1;   KBLOCK =      1    inner block; outer block 
   IBRION =     -1    ionic relax: 0-MD 1-quasi-New 2-CG
   NFREE  =      0    steps in history (QN), initial steepest desc. (CG)
   ISIF   =      2    stress and relaxation
   IWAVPR =     10    prediction:  0-non 1-charg 2-wave 3-comb
   ISYM   =      2    0-nonsym 1-usesym 2-fastsym
   LCORR  =      T    Harris-Foulkes like correction to forces

   POTIM  = 0.5000    time-step for ionic-motion
   TEIN   =    0.0    initial temperature
   TEBEG  =    0.0;   TEEND  =   0.0 temperature during run
   SMASS  =  -3.00    Nose mass-parameter (am)
   estimated Nose-frequenzy (Omega)   =  0.10E-29 period in steps = 0.13E+47 mass=  -0.360E-26a.u.
   SCALEE = 1.0000    scale energy and forces
   NPACO  =    256;   APACO  = 16.0  distance and # of slots for P.C.
   PSTRESS=    0.0 pullay stress

  Mass of Ions in am
   POMASS =  65.39 16.00 12.01  1.00 14.00
  Ionic Valenz
   ZVAL   =  12.00  6.00  4.00  1.00  5.00
  Atomic Wigner-Seitz radii
   RWIGS  =  -1.00 -1.00 -1.00 -1.00 -1.00
  virtual crystal weights 
   VCA    =   1.00  1.00  1.00  1.00  1.00
   NELECT =     432.0000    total number of electrons
   NUPDOWN=      -1.0000    fix difference up-down

 DOS related values:
   EMIN   =  10.00;   EMAX   =-10.00  energy-range for DOS
   EFERMI =   0.00
   ISMEAR =     0;   SIGMA  =   0.05  broadening in eV -4-tet -1-fermi 0-gaus

 Electronic relaxation 2 (details)
   IALGO  =     38    algorithm
   LDIAG  =      T    sub-space diagonalisation (order eigenvalues)
   LSUBROT=      F    optimize rotation matrix (better conditioning)
   TURBO    =      0    0=normal 1=particle mesh
   IRESTART =      0    0=no restart 2=restart with 2 vectors
   NREBOOT  =      0    no. of reboots
   NMIN     =      0    reboot dimension
   EREF     =   0.00    reference energy to select bands
   IMIX   =      4    mixing-type and parameters
     AMIX     =   0.40;   BMIX     =  1.00
     AMIX_MAG =   1.60;   BMIX_MAG =  1.00
     AMIN     =   0.10
     WC   =   100.;   INIMIX=   1;  MIXPRE=   1;  MAXMIX= -45

 Intra band minimization:
   WEIMIN = 0.0000     energy-eigenvalue tresh-hold
   EBREAK =  0.83E-13  absolut break condition
   DEPER  =   0.30     relativ break condition  

   TIME   =   0.40     timestep for ELM

  volume/ion in A,a.u.               =      10.60        71.53
  Fermi-wavevector in a.u.,A,eV,Ry     =   1.183031  2.235605 19.042205  1.399563
  Thomas-Fermi vector in A             =   2.319274
 
 Write flags
   LWAVE        =      T    write WAVECAR
   LDOWNSAMPLE  =      F    k-point downsampling of WAVECAR
   LCHARG       =      T    write CHGCAR
   LVTOT        =      F    write LOCPOT, total local potential
   LVHAR        =      F    write LOCPOT, Hartree potential only
   LELF         =      F    write electronic localiz. function (ELF)
   LORBIT       =     11    0 simple, 1 ext, 2 COOP (PROOUT), +10 PAW based schemes


 Dipole corrections
   LMONO  =      F    monopole corrections only (constant potential shift)
   LDIPOL =      F    correct potential (dipole corrections)
   IDIPOL =      0    1-x, 2-y, 3-z, 4-all directions 
   EPSILON=  1.0000000 bulk dielectric constant

 Exchange correlation treatment:
   GGA     =    --    GGA type
   LEXCH   =     8    internal setting for exchange type
   VOSKOWN=      0    Vosko Wilk Nusair interpolation
   LHFCALC =     F    Hartree Fock is set to
   LHFONE  =     F    Hartree Fock one center treatment
   AEXX    =    0.0000 exact exchange contribution

 Linear response parameters
   LEPSILON=     F    determine dielectric tensor
   LRPA    =     F    only Hartree local field effects (RPA)
   LNABLA  =     F    use nabla operator in PAW spheres
   LVEL    =     F    velocity operator in full k-point grid
   LINTERFAST=   F  fast interpolation
   KINTER  =     0    interpolate to denser k-point grid
   CSHIFT  =0.1000    complex shift for real part using Kramers Kronig
   OMEGAMAX=  -1.0    maximum frequency
   DEG_THRESHOLD= 0.2000000E-02 threshold for treating states as degnerate
   RTIME   =   -0.100 relaxation time in fs
  (WPLASMAI=    0.000 imaginary part of plasma frequency in eV, 0.658/RTIME)
   DFIELD  = 0.0000000 0.0000000 0.0000000 field for delta impulse in time
 
 Orbital magnetization related:
   ORBITALMAG=     F  switch on orbital magnetization
   LCHIMAG   =     F  perturbation theory with respect to B field
   DQ        =  0.001000  dq finite difference perturbation B field
   LLRAUG    =     F  two centre corrections for induced B field

 PEAD related settings:
   LPEAD      =     T    switch on PEAD
   IPEAD      =     4    finite difference order for dpsi/dk
   LCALCPOL   =     T    calculate macroscopic polarization
   LCALCEPS   =     F    calculate dielectric tensor
   EFIELD_PEAD=    0.0000    0.0000    0.0000
   SKIP_EDOTP =     F
   LRPA       =     F
   SKIP_SCF   =     F


--------------------------------------------------------------------------------------------------------


 Static calculation
 charge density and potential remain constant during run
 non-spin polarized calculation
 Variant of blocked Davidson
 Davidson routine will perform the subspace rotation
 perform sub-space diagonalisation
    after iterative eigenvector-optimisation
 no mixing
 using additional bands           84
 reciprocal scheme for non local part
 use partial core corrections
 calculate Harris-corrections to forces 
   (improved forces if not selfconsistent)
 use gradient corrections 
 WARNING: stress and forces are not correct
  (second derivative of E(xc) not defined)
 use of overlap-Matrix (Vanderbilt PP)
 Gauss-broadening in eV      SIGMA  =   0.05


--------------------------------------------------------------------------------------------------------


  energy-cutoff  :      708.00
  volume of cell :     1144.77
      direct lattice vectors                 reciprocal lattice vectors
    12.558308925 -0.000010509 -0.000009291     0.079628594  0.045973599  0.000000054
    -6.279157140 10.875817082  0.000005645     0.000000077  0.091947159 -0.000000008
    -0.000006082  0.000000731  8.381599835     0.000000088 -0.000000011  0.119308965

  length of vectors
    12.558308925 12.558312450  8.381599835     0.091947185  0.091947159  0.119308965


 
 old parameters found on file WAVECAR:
  energy-cutoff  :      708.00
  volume of cell :     1144.77
      direct lattice vectors                 reciprocal lattice vectors
    12.558308925 -0.000010509 -0.000009291     0.079628594  0.045973599  0.000000054
    -6.279157140 10.875817082  0.000005645     0.000000077  0.091947159 -0.000000008
    -0.000006082  0.000000731  8.381599835     0.000000088 -0.000000011  0.119308965

  length of vectors

 
 k-points in units of 2pi/SCALE and weight: read from INCAR                         
   0.00000000  0.00000000  0.00000000       0.028
   0.02654286  0.01532453  0.00000002       0.167
   0.02654289  0.04597359  0.00000002       0.056
   0.00000002 -0.00000000  0.02982724       0.056
   0.02654289  0.01532453  0.02982726       0.333
   0.02654291  0.04597358  0.02982726       0.111
   0.00000004 -0.00000001  0.05965448       0.028
   0.02654291  0.01532453  0.05965450       0.167
   0.02654293  0.04597358  0.05965450       0.056
 
 k-points in reciprocal lattice and weights: read from INCAR                         
   0.00000000  0.00000000  0.00000000       0.028
   0.33333333 -0.00000000  0.00000000       0.167
   0.33333333  0.33333333 -0.00000000       0.056
   0.00000000  0.00000000  0.25000000       0.056
   0.33333333 -0.00000000  0.25000000       0.333
   0.33333333  0.33333333  0.25000000       0.111
   0.00000000  0.00000000  0.50000000       0.028
   0.33333333 -0.00000000  0.50000000       0.167
   0.33333333  0.33333333  0.50000000       0.056
 
 position of ions in fractional coordinates (direct lattice) 
   0.33553420  0.33111820  0.58693040
   0.00441581  0.33553432  0.08693058
   0.66888107  0.00441573  0.58693059
   0.66446539  0.66888157  0.08693046
   0.99558390  0.66446585  0.58693056
   0.33111826  0.99558416  0.08693050
   0.42596891  0.26196249  0.44276160
   0.16400657  0.42596967  0.94276180
   0.73803688  0.16400662  0.44276243
   0.57403014  0.73803735  0.94276217
   0.83599268  0.57403009  0.44276181
   0.26196246  0.83599344  0.94276193
   0.43065559  0.15477412  0.23213009
   0.27588156  0.43065580  0.73212975
   0.84522550  0.27588189  0.23213002
   0.56934366  0.84522607  0.73212986
   0.72411755  0.56934424  0.23212961
   0.15477379  0.72411821  0.73213018
   0.40024750  0.49215577  0.44125746
   0.90809156  0.40024813  0.94125754
   0.50784328  0.90809151  0.44125765
   0.59975166  0.50784370  0.94125726
   0.09190758  0.59975196  0.44125749
   0.49215522  0.09190790  0.94125781
   0.50337799  0.60505202  0.22902653
   0.89832594  0.50337836  0.72902650
   0.39494739  0.89832636  0.22902644
   0.49662123  0.39494778  0.72902631
   0.10167399  0.49662205  0.22902656
   0.60505190  0.10167415  0.72902673
   0.17293188  0.23357859  0.44754359
   0.93935301  0.17293198  0.94754355
   0.76642100  0.93935351  0.44754341
   0.82706750  0.76642139  0.94754362
   0.06064614  0.82706787  0.44754369
   0.23357830  0.06064622  0.94754358
   0.07025280  0.24139302  0.23363858
   0.82885949  0.07025317  0.73363856
   0.75860645  0.82885959  0.23363845
   0.92974657  0.75860684  0.73363864
   0.17113959  0.92974679  0.23363896
   0.24139251  0.17113992  0.73363880
   0.37365087  0.18543556  0.32922772
   0.18821559  0.37365115  0.82922764
   0.81456432  0.18821590  0.32922768
   0.62634836  0.81456442  0.82922800
   0.81178386  0.62634913  0.32922779
   0.18543480  0.81178430  0.82922758
   0.47080454  0.51416773  0.32120737
   0.95663690  0.47080501  0.82120699
   0.48583175  0.95663758  0.32120693
   0.52919487  0.48583221  0.82120758
   0.04336287  0.52919569  0.32120786
   0.51416725  0.04336271  0.82120755
   0.14119117  0.29121698  0.35290378
   0.84997404  0.14119134  0.85290321
   0.70878248  0.84997449  0.35290341
   0.85880841  0.70878331  0.85290351
   0.15002523  0.85880889  0.35290286
   0.29121686  0.15002550  0.85290335
   0.27327885  0.14501580  0.31696404
   0.12826334  0.27327917  0.81696499
   0.85498407  0.12826380  0.31696439
   0.72672040  0.85498426  0.81696408
   0.87173583  0.72672077  0.31696515
   0.14501518  0.87173615  0.81696461
   0.50539983  0.45027026  0.29844696
   0.05512924  0.50539986  0.79844648
   0.54972911  0.05512990  0.29844741
   0.49459937  0.54972971  0.79844711
   0.94486972  0.49459993  0.29844622
   0.45027001  0.94486980  0.79844694
   0.17620455  0.39018531  0.37233763
   0.78601954  0.17620536  0.87233721
   0.60981390  0.78601995  0.37233699
   0.82379461  0.60981445  0.87233789
   0.21397986  0.82379466  0.37233711
   0.39018523  0.21398008  0.87233662
   0.57739717  0.30624107  0.49866726
   0.27115563  0.57739657  0.99866637
   0.69375914  0.27115570  0.49866641
   0.42260295  0.69375917  0.99866665
   0.72884403  0.42260337  0.49866617
   0.30624082  0.72884409  0.99866684
   0.33333268  0.66666688  0.15994946
   0.66666612  0.33333322  0.65994944
   0.35879446  0.60312138  0.49838429
   0.75567364  0.35879495  0.99838431
   0.39687826  0.75567248  0.49838494
   0.64120657  0.39687663  0.99838581
   0.24433056  0.64120642  0.49838645
   0.60312252  0.24432861  0.99838540
   0.33333302  0.66666663  0.65979066
   0.66666598  0.33333330  0.15979065
   0.02730393  0.08940011  0.17599812
   0.93790377  0.02730407  0.67599832
   0.91059865  0.93790374  0.17599894
   0.97269488  0.91059950  0.67599830
   0.06209355  0.97269653  0.17599739
   0.08939774  0.06209441  0.67599780
   0.99999947  0.99999987  0.01475223
   0.99999960  0.00000017  0.51475218
   0.33333281  0.66666724  0.03806306
   0.66666490  0.33333298  0.53806305
   0.33332791  0.66666552  0.53783883
   0.66666299  0.33333411  0.03783882
   0.00000315  0.99999982  0.13665862
   0.00000183  0.00000194  0.63665859
 
 position of ions in cartesian coordinates  (Angst):
   2.13459540  3.60117786  4.91941453
  -2.05141813  3.64920986  0.72861917
   8.37228454  0.04801804  4.91941115
   4.14454863  7.27462670  0.72861396
   8.33056114  7.22659906  4.91941155
  -2.09314456 10.82778782  0.72861918
   3.70454287  2.84905201  3.71104805
  -0.61509111  4.63276720  7.90185306
   8.23866911  1.78369857  3.71105154
   2.57458958  8.02675387  7.90185406
   6.89422652  6.24303784  3.71104775
  -1.95953441  9.09210970  7.90185552
   4.43645347  1.68329068  1.94561838
   0.76044598  4.68373129  6.13641845
   8.88229577  3.00043230  1.94561466
   1.84268181  9.19251869  6.13641896
   5.51868855  6.19207642  1.94561399
  -2.60315941  7.87537613  6.13642482
   1.93610571  5.35259224  3.69844251
   8.89086778  4.35301658  7.88923788
   0.67560082  9.87623216  3.69844541
   4.34303044  5.52320962  7.88923902
  -2.61173569  6.52279195  3.69844621
   5.60352743  0.99956898  7.88924227
   2.52235826  6.58042998  1.91960748
   8.12065842  5.47464209  6.11040287
  -0.68086247  9.77002915  1.91960939
   3.75677920  4.29537508  6.11040442
  -1.84151590  5.40116969  1.91961084
   6.95999625  1.10578366  6.11040527
   0.70505260  2.54035653  3.75113103
  10.71081248  1.88076739  7.94192313
   3.72660071 10.21622921  3.75112791
   5.57408311  8.33545081  7.94192806
  -4.43167890  8.99503851  3.75113619
   2.55253560  0.65957540  7.94192930
  -0.63348968  2.62534573  1.95826576
   9.96793842  0.76405243  6.14905750
   4.32227304  9.01451753  1.95826158
   6.91262863  8.25045998  6.14906117
  -3.68880372 10.11175440  1.95827189
   1.95686277  1.86128450  6.14906557
   3.52804206  2.01675955  2.75945254
   0.01745018  4.06376016  6.95025461
   9.04771119  2.04699339  2.75944813
   2.75109316  8.85904769  6.95025606
   6.26168587  6.81205030  2.75945159
  -2.76857869  8.82881623  6.95025662
   2.68396686  5.59198951  2.69223015
   9.05747804  5.12037974  6.88302216
   0.09434551 10.40421048  2.69222886
   3.59517086  5.28381726  6.88303117
  -2.77834057  5.75543534  2.69223835
   6.18478493  0.47160006  6.88302851
  -0.05547700  3.16722134  2.95789862
   9.78766880  1.53556293  7.14868628
   3.56398380  9.24415985  2.95789340
   6.33461434  7.70858922  7.14869191
  -3.50853491  9.34024704  2.95789400
   2.71515242  1.63164750  7.14869268
   2.52134125  1.57716272  2.65666399
  -0.10519719  2.97213352  6.84747402
   9.93176357  1.39496485  2.65666149
   3.75779385  9.29864534  6.84746404
   6.38433206  7.90367321  2.65667106
  -3.65262786  9.48084200  6.84747400
   3.51964769  4.89705191  2.50146083
  -2.48115999  5.49663647  6.69226119
   6.55749690  0.59957711  2.50146199
   2.75948766  5.97875512  6.69226270
   8.76029333  5.37916867  2.50145076
  -0.27836088 10.27622697  6.69226387
  -0.23720598  4.24358243  3.12078559
   8.76464979  1.91636965  7.31157512
   2.72268629  8.54860309  3.12077841
   6.51634109  6.63222238  7.31158294
  -2.48551313  8.95943804  3.12078333
   3.55644686  2.32720471  7.31157405
   5.32819315  3.33061616  4.17962582
  -0.22031370  6.27965731  8.37042262
   7.00980926  2.94903292  4.17961738
   0.95094946  7.54519413  8.37042420
   6.49945252  4.59614963  4.17961589
  -0.73066576  7.92677248  8.37042712
  -0.00001225  7.25054364  1.34063300
   6.27914341  3.62526464  5.53142780
   0.71875475  6.55943441  4.17725778
   7.23704709  3.90218099  8.36805274
   0.23913050  8.21855183  4.17726367
   5.56041332  4.31635167  8.36806660
  -0.95786020  6.97364152  4.17727712
   6.04001511  2.65726768  8.36806271
  -0.00000944  7.25054130  5.53010199
   6.27914425  3.62526511  1.33929701
  -0.21846717  0.97229910  1.47514606
  11.60703467  0.29694469  5.66593883
   5.54633314 10.20046009  1.47514949
   6.49760129  9.90350389  5.66594331
  -5.32792544 10.57886902  1.47514465
   0.73277976  0.67532703  5.66594254
   6.27914594 10.87580513  0.12364364
  12.55829968 -0.00000832  4.31443750
  -0.00001218  7.25054743  0.31903000
   6.27913034  3.62526195  4.50982489
  -0.00006598  7.25052914  4.50795051
   6.27910222  3.62527386  0.31714553
  -6.27911727 10.87581519  1.14542350
   0.00000691  0.00002162  5.33621752
 


--------------------------------------------------------------------------------------------------------


 k-point   1 :   0.0000 0.0000 0.0000  plane waves:   49009
 k-point   2 :   0.3333-0.0000 0.0000  plane waves:   48981
 k-point   3 :   0.3333 0.3333-0.0000  plane waves:   48957
 k-point   4 :   0.0000 0.0000 0.2500  plane waves:   48972
 k-point   5 :   0.3333-0.0000 0.2500  plane waves:   48956
 k-point   6 :   0.3333 0.3333 0.2500  plane waves:   48945
 k-point   7 :   0.0000 0.0000 0.5000  plane waves:   48960
 k-point   8 :   0.3333-0.0000 0.5000  plane waves:   48994
 k-point   9 :   0.3333 0.3333 0.5000  plane waves:   48954

 maximum and minimum number of plane-waves per node :     49009    48945

 maximum number of plane-waves:     49009
 maximum index in each direction: 
   IXMAX=   27   IYMAX=   27   IZMAX=   18
   IXMIN=  -27   IYMIN=  -27   IZMIN=  -18


 serial   3D FFT for wavefunctions
 parallel 3D FFT for charge:
    minimum data exchange during FFTs selected (reduces bandwidth)


 total amount of memory used by VASP MPI-rank0   612999. kBytes
=======================================================================

   base      :      30000. kBytes
   nonl-proj :     402356. kBytes
   fftplans  :      43701. kBytes
   grid      :      63508. kBytes
   one-center:       1679. kBytes
   wavefun   :      71755. kBytes
 
     INWAV:  cpu time    5.4979: real time    6.8438
 initial charge density was supplied:
 number of electron     432.0000005 magnetization 
 keeping initial charge density in first step


--------------------------------------------------------------------------------------------------------


 Maximum index for augmentation-charges         7393 (set IRDMAX)


--------------------------------------------------------------------------------------------------------


 First call to EWALD:  gamma=   0.169
 Maximum number of real-space cells 3x 3x 3
 Maximum number of reciprocal cells 3x 3x 2

    FEWALD:  cpu time    0.0051: real time    0.0052


--------------------------------------- Iteration      1(   1)  ---------------------------------------


    POTLOK:  cpu time    0.2082: real time    0.2170
    SETDIJ:  cpu time    0.3990: real time    0.4046
     EDDAV:  cpu time   33.1802: real time   33.2846
       DOS:  cpu time    0.0015: real time    0.0043
    --------------------------------------------
      LOOP:  cpu time   33.7889: real time   33.9106

 eigenvalue-minimisations  :  5910
 total energy-change (2. order) :-0.6354064E+03  (-0.3391554E+02)
 number of electron     432.0000005 magnetization 
 augmentation part      432.0000005 magnetization 

 Free energy of the ion-electron system (eV)
  ---------------------------------------------------
  alpha Z        PSCENC =       840.16543855
  Ewald energy   TEWEN  =    -13751.18506405
  -Hartree energ DENC   =    -15583.75991461
  -exchange      EXHF   =         0.00000000
  -V(xc)+E(xc)   XCENC  =      1859.32623318
  PAW double counting   =     38822.49513692   -39982.47888347
  entropy T*S    EENTRO =        -0.00000000
  eigenvalues    EBANDS =     -3658.81567052
  atomic energy  EATOM  =     30818.84635124
  Solvation  Ediel_sol  =         0.00000000
  ---------------------------------------------------
  free energy    TOTEN  =      -635.40637276 eV

  energy without entropy =     -635.40637276  energy(sigma->0) =     -635.40637276


--------------------------------------------------------------------------------------------------------




--------------------------------------- Iteration      1(   2)  ---------------------------------------


     EDDAV:  cpu time   35.5654: real time   35.6450
       DOS:  cpu time    0.0009: real time    0.0009
    --------------------------------------------
      LOOP:  cpu time   35.5663: real time   35.6459

 eigenvalue-minimisations  :  6510
 total energy-change (2. order) :-0.2252716E+01  (-0.2251076E+01)
 number of electron     432.0000005 magnetization 
 augmentation part      432.0000005 magnetization 

 Free energy of the ion-electron system (eV)
  ---------------------------------------------------
  alpha Z        PSCENC =       840.16543855
  Ewald energy   TEWEN  =    -13751.18506405
  -Hartree energ DENC   =    -15583.75991461
  -exchange      EXHF   =         0.00000000
  -V(xc)+E(xc)   XCENC  =      1859.32623318
  PAW double counting   =     38822.49513692   -39982.47888347
  entropy T*S    EENTRO =        -0.00000000
  eigenvalues    EBANDS =     -3661.06838659
  atomic energy  EATOM  =     30818.84635124
  Solvation  Ediel_sol  =         0.00000000
  ---------------------------------------------------
  free energy    TOTEN  =      -637.65908882 eV

  energy without entropy =     -637.65908882  energy(sigma->0) =     -637.65908882


--------------------------------------------------------------------------------------------------------




--------------------------------------- Iteration      1(   3)  ---------------------------------------


     EDDAV:  cpu time   38.4633: real time   38.5476
       DOS:  cpu time    0.0010: real time    0.0010
    --------------------------------------------
      LOOP:  cpu time   38.4643: real time   38.5486

 eigenvalue-minimisations  :  7440
 total energy-change (2. order) :-0.4418829E-01  (-0.4418422E-01)
 number of electron     432.0000005 magnetization 
 augmentation part      432.0000005 magnetization 

 Free energy of the ion-electron system (eV)
  ---------------------------------------------------
  alpha Z        PSCENC =       840.16543855
  Ewald energy   TEWEN  =    -13751.18506405
  -Hartree energ DENC   =    -15583.75991461
  -exchange      EXHF   =         0.00000000
  -V(xc)+E(xc)   XCENC  =      1859.32623318
  PAW double counting   =     38822.49513692   -39982.47888347
  entropy T*S    EENTRO =        -0.00000000
  eigenvalues    EBANDS =     -3661.11257487
  atomic energy  EATOM  =     30818.84635124
  Solvation  Ediel_sol  =         0.00000000
  ---------------------------------------------------
  free energy    TOTEN  =      -637.70327711 eV

  energy without entropy =     -637.70327711  energy(sigma->0) =     -637.70327711


--------------------------------------------------------------------------------------------------------




--------------------------------------- Iteration      1(   4)  ---------------------------------------


     EDDAV:  cpu time   34.8960: real time   34.9766
       DOS:  cpu time    0.0005: real time    0.0005
    --------------------------------------------
      LOOP:  cpu time   34.8965: real time   34.9771

 eigenvalue-minimisations  :  6480
 total energy-change (2. order) :-0.8415443E-03  (-0.8414959E-03)
 number of electron     432.0000005 magnetization 
 augmentation part      432.0000005 magnetization 

 Free energy of the ion-electron system (eV)
  ---------------------------------------------------
  alpha Z        PSCENC =       840.16543855
  Ewald energy   TEWEN  =    -13751.18506405
  -Hartree energ DENC   =    -15583.75991461
  -exchange      EXHF   =         0.00000000
  -V(xc)+E(xc)   XCENC  =      1859.32623318
  PAW double counting   =     38822.49513692   -39982.47888347
  entropy T*S    EENTRO =        -0.00000000
  eigenvalues    EBANDS =     -3661.11341642
  atomic energy  EATOM  =     30818.84635124
  Solvation  Ediel_sol  =         0.00000000
  ---------------------------------------------------
  free energy    TOTEN  =      -637.70411865 eV

  energy without entropy =     -637.70411865  energy(sigma->0) =     -637.70411865


--------------------------------------------------------------------------------------------------------




--------------------------------------- Iteration      1(   5)  ---------------------------------------


     EDDAV:  cpu time   35.2831: real time   35.3724
       DOS:  cpu time    0.0009: real time    0.0009
    --------------------------------------------
      LOOP:  cpu time   35.2840: real time   35.3733

 eigenvalue-minimisations  :  6990
 total energy-change (2. order) :-0.3722002E-04  (-0.3721893E-04)
 number of electron     432.0000005 magnetization 
 augmentation part      432.0000005 magnetization 

 Free energy of the ion-electron system (eV)
  ---------------------------------------------------
  alpha Z        PSCENC =       840.16543855
  Ewald energy   TEWEN  =    -13751.18506405
  -Hartree energ DENC   =    -15583.75991461
  -exchange      EXHF   =         0.00000000
  -V(xc)+E(xc)   XCENC  =      1859.32623318
  PAW double counting   =     38822.49513692   -39982.47888347
  entropy T*S    EENTRO =        -0.00000000
  eigenvalues    EBANDS =     -3661.11345364
  atomic energy  EATOM  =     30818.84635124
  Solvation  Ediel_sol  =         0.00000000
  ---------------------------------------------------
  free energy    TOTEN  =      -637.70415587 eV

  energy without entropy =     -637.70415587  energy(sigma->0) =     -637.70415587


--------------------------------------------------------------------------------------------------------




--------------------------------------- Iteration      1(   6)  ---------------------------------------


     EDDAV:  cpu time   33.1753: real time   33.2593
       DOS:  cpu time    0.0006: real time    0.0006
    --------------------------------------------
      LOOP:  cpu time   33.1759: real time   33.2599

 eigenvalue-minimisations  :  6270
 total energy-change (2. order) :-0.1536042E-05  (-0.1536264E-05)
 number of electron     432.0000005 magnetization 
 augmentation part      432.0000005 magnetization 

 Free energy of the ion-electron system (eV)
  ---------------------------------------------------
  alpha Z        PSCENC =       840.16543855
  Ewald energy   TEWEN  =    -13751.18506405
  -Hartree energ DENC   =    -15583.75991461
  -exchange      EXHF   =         0.00000000
  -V(xc)+E(xc)   XCENC  =      1859.32623318
  PAW double counting   =     38822.49513692   -39982.47888347
  entropy T*S    EENTRO =        -0.00000000
  eigenvalues    EBANDS =     -3661.11345517
  atomic energy  EATOM  =     30818.84635124
  Solvation  Ediel_sol  =         0.00000000
  ---------------------------------------------------
  free energy    TOTEN  =      -637.70415741 eV

  energy without entropy =     -637.70415741  energy(sigma->0) =     -637.70415741


--------------------------------------------------------------------------------------------------------




--------------------------------------- Iteration      1(   7)  ---------------------------------------


     EDDAV:  cpu time   34.6418: real time   34.7198
       DOS:  cpu time    0.0007: real time    0.0007
    --------------------------------------------
      LOOP:  cpu time   34.6424: real time   34.7205

 eigenvalue-minimisations  :  6780
 total energy-change (2. order) :-0.8071947E-07  (-0.8071991E-07)
 number of electron     432.0000005 magnetization 
 augmentation part      432.0000005 magnetization 

 Free energy of the ion-electron system (eV)
  ---------------------------------------------------
  alpha Z        PSCENC =       840.16543855
  Ewald energy   TEWEN  =    -13751.18506405
  -Hartree energ DENC   =    -15583.75991461
  -exchange      EXHF   =         0.00000000
  -V(xc)+E(xc)   XCENC  =      1859.32623318
  PAW double counting   =     38822.49513692   -39982.47888347
  entropy T*S    EENTRO =        -0.00000000
  eigenvalues    EBANDS =     -3661.11345525
[...]
   -.223E+02 0.164E+02 0.143E+02   0.271E+02 -.208E+02 -.164E+02   -.472E+01 0.439E+01 0.209E+01   -.370E-04 -.791E-05 0.145E-03
   -.254E+02 -.111E+02 0.143E+02   0.315E+02 0.130E+02 -.164E+02   -.616E+01 -.189E+01 0.209E+01   -.427E-04 0.149E-03 0.343E-04
   -.304E+01 -.275E+02 0.143E+02   0.448E+01 0.338E+02 -.164E+02   -.145E+01 -.628E+01 0.209E+01   -.990E-04 0.115E-03 0.924E-04
   0.223E+02 -.164E+02 0.143E+02   -.271E+02 0.208E+02 -.164E+02   0.472E+01 -.439E+01 0.209E+01   0.612E-04 -.121E-04 0.103E-03
   0.806E-03 -.221E-03 -.615E+02   0.283E-03 -.226E-03 0.689E+02   0.543E-05 -.652E-06 -.749E+01   -.100E-03 0.605E-04 0.186E-03
   0.486E-03 0.121E-03 -.615E+02   0.106E-02 0.207E-03 0.689E+02   0.543E-05 -.652E-06 -.749E+01   -.531E-04 0.506E-04 0.222E-03
   -.222E+02 0.174E+02 0.127E+02   0.268E+02 -.219E+02 -.148E+02   -.462E+01 0.446E+01 0.209E+01   0.206E-04 -.801E-04 0.526E-04
   -.262E+02 -.105E+02 0.127E+02   0.323E+02 0.123E+02 -.148E+02   -.618E+01 -.177E+01 0.209E+01   0.859E-04 0.976E-04 -.134E-03
   -.397E+01 -.279E+02 0.127E+02   0.553E+01 0.341E+02 -.148E+02   -.156E+01 -.623E+01 0.209E+01   0.241E-03 0.159E-03 -.145E-03
   0.222E+02 -.174E+02 0.127E+02   -.268E+02 0.219E+02 -.148E+02   0.462E+01 -.446E+01 0.209E+01   -.264E-04 0.650E-04 -.256E-04
   0.262E+02 0.105E+02 0.127E+02   -.323E+02 -.123E+02 -.148E+02   0.618E+01 0.177E+01 0.209E+01   0.467E-04 -.593E-04 0.161E-04
   0.397E+01 0.279E+02 0.127E+02   -.552E+01 -.341E+02 -.148E+02   0.156E+01 0.623E+01 0.209E+01   -.204E-04 0.868E-04 -.840E-04
   0.154E-03 0.560E-04 -.617E+02   0.385E-02 0.736E-03 0.692E+02   0.542E-05 -.652E-06 -.747E+01   0.106E-03 -.120E-03 -.126E-03
   0.556E-03 0.140E-04 -.617E+02   0.310E-02 -.521E-03 0.692E+02   0.542E-05 -.652E-06 -.747E+01   -.265E-04 0.993E-04 -.167E-03
   0.279E+01 -.282E+02 -.135E+02   -.422E+01 0.345E+02 0.156E+02   0.143E+01 -.628E+01 -.208E+01   0.647E-04 0.767E-05 0.609E-05
   0.258E+02 -.117E+02 -.135E+02   -.320E+02 0.136E+02 0.156E+02   0.615E+01 -.190E+01 -.208E+01   -.174E-03 -.152E-04 -.123E-03
   0.231E+02 0.165E+02 -.135E+02   -.278E+02 -.209E+02 0.156E+02   0.472E+01 0.438E+01 -.208E+01   0.682E-04 -.278E-03 0.641E-04
   -.279E+01 0.282E+02 -.135E+02   0.422E+01 -.345E+02 0.156E+02   -.143E+01 0.628E+01 -.208E+01   -.187E-03 -.140E-03 -.879E-04
   -.259E+02 0.117E+02 -.135E+02   0.320E+02 -.136E+02 0.156E+02   -.615E+01 0.190E+01 -.208E+01   -.454E-05 -.138E-03 -.525E-05
   -.231E+02 -.165E+02 -.135E+02   0.278E+02 0.209E+02 0.156E+02   -.472E+01 -.438E+01 -.208E+01   -.243E-04 0.135E-03 -.361E-04
   0.670E-03 0.764E-04 0.616E+02   -.320E-02 0.803E-04 -.691E+02   -.543E-05 0.652E-06 0.748E+01   0.527E-04 -.114E-03 0.262E-04
   0.613E-03 -.554E-04 0.616E+02   -.127E-02 -.140E-02 -.691E+02   -.543E-05 0.652E-06 0.748E+01   -.169E-03 -.466E-04 0.493E-04
   0.742E-02 -.469E-02 -.140E+01   0.167E-02 -.121E-02 -.188E+01   -.238E-05 0.286E-06 0.328E+01   -.134E-02 0.834E-03 0.833E-03
   0.142E-01 0.290E-02 -.140E+01   0.453E-02 0.532E-03 -.188E+01   -.238E-05 0.286E-06 0.328E+01   -.561E-03 0.317E-03 0.116E-02
   0.437E-01 0.929E-02 -.862E+01   0.131E-01 0.174E-02 0.520E+01   -.247E-05 0.297E-06 0.341E+01   0.108E-02 -.138E-02 -.688E-03
   0.366E-01 -.638E-02 -.862E+01   0.117E-01 -.147E-02 0.520E+01   -.247E-05 0.297E-06 0.341E+01   -.238E-03 0.796E-03 -.105E-02
   -.289E-01 0.120E-02 0.453E+01   -.109E-01 0.608E-03 -.122E+01   0.240E-05 -.288E-06 -.330E+01   0.101E-02 -.120E-02 -.110E-02
   -.724E-02 -.150E-01 0.453E+01   -.469E-02 -.519E-02 -.122E+01   0.240E-05 -.288E-06 -.330E+01   -.124E-02 -.582E-04 -.153E-02
 -----------------------------------------------------------------------------------------------
   0.331E+00 -.742E-02 0.124E+02   0.157E-12 0.330E-12 -.334E-12   0.899E-05 -.108E-05 -.124E+02   0.116E-03 -.114E-01 -.374E-01
 
 
 POSITION                                       TOTAL-FORCE (eV/Angst)
 -----------------------------------------------------------------------------------
      2.13460      3.60118      4.91941        -0.000050     -0.000075      0.000255
     -2.05142      3.64921      0.72862         0.000040     -0.000080      0.000255
      8.37228      0.04802      4.91941         0.000090     -0.000005      0.000255
      4.14455      7.27463      0.72861         0.000050      0.000075      0.000255
      8.33056      7.22660      4.91941        -0.000040      0.000080      0.000255
     -2.09314     10.82779      0.72862        -0.000090      0.000005      0.000255
      3.70454      2.84905      3.71105        -0.000173     -0.000271     -0.000593
     -0.61509      4.63277      7.90185         0.000148     -0.000285     -0.000593
      8.23867      1.78370      3.71105         0.000321     -0.000014     -0.000593
      2.57459      8.02675      7.90185         0.000173      0.000271     -0.000593
      6.89423      6.24304      3.71105        -0.000148      0.000285     -0.000593
     -1.95953      9.09211      7.90186        -0.000321      0.000014     -0.000593
      4.43645      1.68329      1.94562        -0.001656     -0.000376     -0.001188
      0.76045      4.68373      6.13642        -0.000502     -0.001622     -0.001188
      8.88230      3.00043      1.94561         0.001153     -0.001246     -0.001188
      1.84268      9.19252      6.13642         0.001656      0.000376     -0.001188
      5.51869      6.19208      1.94561         0.000502      0.001622     -0.001188
     -2.60316      7.87538      6.13642        -0.001153      0.001246     -0.001188
      1.93611      5.35259      3.69844        -0.001285     -0.000846      0.002144
      8.89087      4.35302      7.88924         0.000090     -0.001536      0.002144
      0.67560      9.87623      3.69845         0.001375     -0.000690      0.002144
      4.34303      5.52321      7.88924         0.001285      0.000846      0.002144
     -2.61174      6.52279      3.69845        -0.000090      0.001536      0.002144
      5.60353      0.99957      7.88924        -0.001375      0.000690      0.002144
      2.52236      6.58043      1.91961        -0.000626      0.000312     -0.001652
      8.12066      5.47464      6.11040        -0.000583     -0.000386     -0.001652
     -0.68086      9.77003      1.91961         0.000043     -0.000698     -0.001652
      3.75678      4.29538      6.11040         0.000626     -0.000312     -0.001652
     -1.84152      5.40117      1.91961         0.000583      0.000386     -0.001652
      6.96000      1.10578      6.11041        -0.000043      0.000698     -0.001652
      0.70505      2.54036      3.75113         0.000210      0.000416      0.001192
     10.71081      1.88077      7.94192        -0.000255      0.000390      0.001192
      3.72660     10.21623      3.75113        -0.000465     -0.000026      0.001192
      5.57408      8.33545      7.94193        -0.000210     -0.000416      0.001192
     -4.43168      8.99504      3.75114         0.000255     -0.000390      0.001192
      2.55254      0.65958      7.94193         0.000465      0.000026      0.001192
     -0.63349      2.62535      1.95827        -0.001160      0.000196     -0.001378
      9.96794      0.76405      6.14906        -0.000749     -0.000907     -0.001378
      4.32227      9.01452      1.95826         0.000410     -0.001102     -0.001378
      6.91263      8.25046      6.14906         0.001160     -0.000196     -0.001378
     -3.68880     10.11175      1.95827         0.000749      0.000907     -0.001378
      1.95686      1.86128      6.14907        -0.000410      0.001102     -0.001378
      3.52804      2.01676      2.75945         0.002108      0.001678      0.000684
      0.01745      4.06376      6.95025        -0.000399      0.002664      0.000684
      9.04771      2.04699      2.75945        -0.002507      0.000986      0.000684
      2.75109      8.85905      6.95026        -0.002108     -0.001678      0.000684
      6.26169      6.81205      2.75945         0.000399     -0.002664      0.000684
     -2.76858      8.82882      6.95026         0.002507     -0.000986      0.000684
      2.68397      5.59199      2.69223         0.000751     -0.001583      0.000605
      9.05748      5.12038      6.88302         0.001746     -0.000141      0.000605
      0.09435     10.40421      2.69223         0.000995      0.001441      0.000605
      3.59517      5.28382      6.88303        -0.000751      0.001583      0.000605
     -2.77834      5.75544      2.69224        -0.001746      0.000141      0.000605
      6.18478      0.47160      6.88303        -0.000995     -0.001441      0.000605
     -0.05548      3.16722      2.95790        -0.000775     -0.001193     -0.000988
      9.78767      1.53556      7.14869         0.000646     -0.001268     -0.000988
      3.56398      9.24416      2.95789         0.001421     -0.000074     -0.000988
      6.33461      7.70859      7.14869         0.000775      0.001193     -0.000988
     -3.50853      9.34025      2.95789        -0.000646      0.001268     -0.000988
      2.71515      1.63165      7.14869        -0.001421      0.000074     -0.000988
      2.52134      1.57716      2.65666        -0.001104     -0.001709     -0.001775
     -0.10520      2.97213      6.84747         0.000928     -0.001811     -0.001775
      9.93176      1.39496      2.65666         0.002032     -0.000101     -0.001775
      3.75779      9.29865      6.84746         0.001104      0.001709     -0.001775
      6.38433      7.90367      2.65667        -0.000928      0.001811     -0.001775
     -3.65263      9.48084      6.84747        -0.002032      0.000101     -0.001775
      3.51965      4.89705      2.50146         0.001222      0.001575     -0.000497
     -2.48116      5.49664      6.69226        -0.000753      0.001846     -0.000497
      6.55750      0.59958      2.50146        -0.001975      0.000271     -0.000497
      2.75949      5.97876      6.69226        -0.001222     -0.001575     -0.000497
      8.76029      5.37917      2.50145         0.000753     -0.001846     -0.000497
     -0.27836     10.27623      6.69226         0.001975     -0.000271     -0.000497
     -0.23721      4.24358      3.12079         0.000534      0.001528      0.002213
      8.76465      1.91637      7.31158        -0.001057      0.001226      0.002213
      2.72269      8.54860      3.12078        -0.001590     -0.000302      0.002213
      6.51634      6.63222      7.31158        -0.000534     -0.001528      0.002213
     -2.48551      8.95944      3.12078         0.001057     -0.001226      0.002213
      3.55645      2.32720      7.31157         0.001590      0.000302      0.002213
      5.32819      3.33062      4.17963         0.001399     -0.000196      0.000257
     -0.22031      6.27966      8.37042         0.000870      0.001114      0.000257
      7.00981      2.94903      4.17962        -0.000530      0.001310      0.000257
      0.95095      7.54519      8.37042        -0.001399      0.000196      0.000257
      6.49945      4.59615      4.17962        -0.000870     -0.001114      0.000257
     -0.73067      7.92677      8.37043         0.000530     -0.001310      0.000257
     -0.00001      7.25054      1.34063         0.000000     -0.000000     -0.004568
      6.27914      3.62526      5.53143         0.000000     -0.000000     -0.004568
      0.71875      6.55943      4.17726         0.001323     -0.000303     -0.001019
      7.23705      3.90218      8.36805         0.000924      0.000994     -0.001019
      0.23913      8.21855      4.17726        -0.000399      0.001297     -0.001019
      5.56041      4.31635      8.36807        -0.001323      0.000303     -0.001019
     -0.95786      6.97364      4.17728        -0.000924     -0.000994     -0.001019
      6.04002      2.65727      8.36806         0.000399     -0.001297     -0.001019
     -0.00001      7.25054      5.53010        -0.000000      0.000000      0.000667
      6.27914      3.62527      1.33930        -0.000000      0.000000      0.000667
     -0.21847      0.97230      1.47515         0.001078      0.000503      0.001262
     11.60703      0.29694      5.66594         0.000103      0.001185      0.001262
      5.54633     10.20046      1.47515        -0.000975      0.000682      0.001262
      6.49760      9.90350      5.66594        -0.001078     -0.000503      0.001262
     -5.32793     10.57887      1.47514        -0.000103     -0.001185      0.001262
      0.73278      0.67533      5.66594         0.000975     -0.000682      0.001262
      6.27915     10.87581      0.12364        -0.000000      0.000000      0.002622
     12.55830     -0.00001      4.31444        -0.000000      0.000000      0.002622
     -0.00001      7.25055      0.31903        -0.000000      0.000000      0.003930
      6.27913      3.62526      4.50982        -0.000000      0.000000      0.003930
     -0.00007      7.25053      4.50795        -0.000000      0.000000      0.000048
      6.27910      3.62527      0.31715        -0.000000      0.000000      0.000048
     -6.27912     10.87582      1.14542         0.000000     -0.000000     -0.001267
      0.00001      0.00002      5.33622         0.000000     -0.000000     -0.001267
 -----------------------------------------------------------------------------------
    total drift:                                0.330985     -0.018809      0.001612


--------------------------------------------------------------------------------------------------------



  FREE ENERGIE OF THE ION-ELECTRON SYSTEM (eV)
  ---------------------------------------------------
  free  energy   TOTEN  =      -644.27660232 eV

  energy  without entropy=     -644.27660232  energy(sigma->0) =     -644.27660232
 


--------------------------------------------------------------------------------------------------------


    POTLOK:  cpu time    0.5528: real time    0.5552


--------------------------------------------------------------------------------------------------------


 writing wavefunctions
     LOOP+:  cpu time  662.3490: real time  666.0926
    4ORBIT:  cpu time    0.0000: real time    0.0023



 total charge

# of ion       s       p       d       tot
------------------------------------------
    1        0.360   0.355   9.905  10.620
    2        0.360   0.355   9.905  10.620
    3        0.360   0.355   9.905  10.620
    4        0.360   0.355   9.905  10.620
    5        0.360   0.355   9.905  10.620
    6        0.360   0.355   9.905  10.620
    7        1.568   3.575   0.000   5.142
    8        1.568   3.575   0.000   5.142
    9        1.568   3.575   0.000   5.142
   10        1.568   3.575   0.000   5.142
   11        1.568   3.575   0.000   5.142
   12        1.568   3.575   0.000   5.142
   13        1.571   3.566   0.000   5.137
   14        1.571   3.566   0.000   5.137
   15        1.571   3.566   0.000   5.137
   16        1.571   3.566   0.000   5.137
   17        1.571   3.566   0.000   5.137
   18        1.571   3.566   0.000   5.137
   19        1.568   3.570   0.000   5.138
   20        1.568   3.570   0.000   5.138
   21        1.568   3.570   0.000   5.138
   22        1.568   3.570   0.000   5.138
   23        1.568   3.570   0.000   5.138
   24        1.568   3.570   0.000   5.138
   25        1.571   3.568   0.000   5.138
   26        1.571   3.568   0.000   5.138
   27        1.571   3.568   0.000   5.138
   28        1.571   3.568   0.000   5.138
   29        1.571   3.568   0.000   5.138
   30        1.571   3.568   0.000   5.138
   31        1.571   3.568   0.000   5.138
   32        1.571   3.568   0.000   5.138
   33        1.571   3.568   0.000   5.138
   34        1.571   3.568   0.000   5.138
   35        1.571   3.568   0.000   5.138
   36        1.571   3.568   0.000   5.138
   37        1.568   3.572   0.000   5.140
   38        1.568   3.572   0.000   5.140
   39        1.568   3.572   0.000   5.140
   40        1.568   3.572   0.000   5.140
   41        1.568   3.572   0.000   5.140
   42        1.568   3.572   0.000   5.140
   43        0.875   1.709   0.000   2.584
   44        0.875   1.709   0.000   2.584
   45        0.875   1.709   0.000   2.584
   46        0.875   1.709   0.000   2.584
   47        0.875   1.709   0.000   2.584
   48        0.875   1.709   0.000   2.584
   49        0.874   1.708   0.000   2.582
   50        0.874   1.708   0.000   2.582
   51        0.874   1.708   0.000   2.582
   52        0.874   1.708   0.000   2.582
   53        0.874   1.708   0.000   2.582
   54        0.874   1.708   0.000   2.582
   55        0.875   1.708   0.000   2.583
   56        0.875   1.708   0.000   2.583
   57        0.875   1.708   0.000   2.583
   58        0.875   1.708   0.000   2.583
   59        0.875   1.708   0.000   2.583
   60        0.875   1.708   0.000   2.583
   61        0.641   0.048   0.000   0.688
   62        0.641   0.048   0.000   0.688
   63        0.641   0.048   0.000   0.688
   64        0.641   0.048   0.000   0.688
   65        0.641   0.048   0.000   0.688
   66        0.641   0.048   0.000   0.688
   67        0.641   0.047   0.000   0.688
   68        0.641   0.047   0.000   0.688
   69        0.641   0.047   0.000   0.688
   70        0.641   0.047   0.000   0.688
   71        0.641   0.047   0.000   0.688
   72        0.641   0.047   0.000   0.688
   73        0.641   0.047   0.000   0.688
   74        0.641   0.047   0.000   0.688
   75        0.641   0.047   0.000   0.688
   76        0.641   0.047   0.000   0.688
   77        0.641   0.047   0.000   0.688
   78        0.641   0.047   0.000   0.688
   79        0.582   0.088   0.000   0.670
   80        0.582   0.088   0.000   0.670
   81        0.582   0.088   0.000   0.670
   82        0.582   0.088   0.000   0.670
   83        0.582   0.088   0.000   0.670
   84        0.582   0.088   0.000   0.670
   85        0.625   0.084   0.000   0.709
   86        0.625   0.084   0.000   0.709
   87        0.580   0.087   0.000   0.667
   88        0.580   0.087   0.000   0.667
   89        0.580   0.087   0.000   0.667
   90        0.580   0.087   0.000   0.667
   91        0.580   0.087   0.000   0.667
   92        0.580   0.087   0.000   0.667
   93        0.625   0.084   0.000   0.709
   94        0.625   0.084   0.000   0.709
   95        0.581   0.088   0.000   0.668
   96        0.581   0.088   0.000   0.668
   97        0.581   0.088   0.000   0.668
   98        0.581   0.088   0.000   0.668
   99        0.581   0.088   0.000   0.668
  100        0.581   0.088   0.000   0.668
  101        0.625   0.084   0.000   0.709
  102        0.625   0.084   0.000   0.709
  103        1.224   2.820   0.000   4.044
  104        1.224   2.820   0.000   4.044
  105        1.224   2.816   0.000   4.039
  106        1.224   2.816   0.000   4.039
  107        1.224   2.818   0.000   4.042
  108        1.224   2.818   0.000   4.042
--------------------------------------------------
tot        107.485 181.228  59.427 348.140
 

 total amount of memory used by VASP MPI-rank0   612999. kBytes
=======================================================================

   base      :      30000. kBytes
   nonl-proj :     402356. kBytes
   fftplans  :      43701. kBytes
   grid      :      63508. kBytes
   one-center:       1679. kBytes
   wavefun   :      71755. kBytes
 
  
  
 General timing and accounting informations for this job:
 ========================================================
  
                  Total CPU time used (sec):      689.876
                            User time (sec):      681.465
                          System time (sec):        8.410
                         Elapsed time (sec):      698.859
  
                   Maximum memory used (kb):      869356.
                   Average memory used (kb):          N/A
  
                          Minor page faults:      1084551
                          Major page faults:          290
                 Voluntary context switches:       148546
