 vasp.5.4.1 24Jun15 (build Aug 03 2015 13:31:17) complex                        
  
 executed on      LinuxIFC_2015xe date 2021.07.13  23:27:10
 running on   40 total cores
 distrk:  each k-point on   40 cores,    1 groups
 distr:  one band on NCORES_PER_BAND=   1 cores,   40 groups


--------------------------------------------------------------------------------------------------------


 INCAR:
 POTCAR:    PAW_PBE Mn_pv 02Aug2007               
 POTCAR:   PAW_PBE O 08Apr2002                    
 POTCAR:   PAW_PBE C 08Apr2002                    
 POTCAR:   PAW_PBE H 15Jun2001                    
 POTCAR:   PAW_PBE N 08Apr2002                    

 ----------------------------------------------------------------------------- 
|                                                                             |
|           W    W    AA    RRRRR   N    N  II  N    N   GGGG   !!!           |
|           W    W   A  A   R    R  NN   N  II  NN   N  G    G  !!!           |
|           W    W  A    A  R    R  N N  N  II  N N  N  G       !!!           |
|           W WW W  AAAAAA  RRRRR   N  N N  II  N  N N  G  GGG   !            |
|           WW  WW  A    A  R   R   N   NN  II  N   NN  G    G                |
|           W    W  A    A  R    R  N    N  II  N    N   GGGG   !!!           |
|                                                                             |
|      For optimal performance we recommend to set                            |
|        NCORE= 4 - approx SQRT( number of cores)                             |
|      NCORE specifies how many cores store one orbital (NPAR=cpu/NCORE).     |
|      This setting can  greatly improve the performance of VASP for DFT.     |
|      The default, NPAR=number of cores might be grossly inefficient         |
|      on modern multi-core architectures or massively parallel machines.     |
|      Do your own testing !!!!                                               |
|      Unfortunately you need to use the default for GW and RPA calculations. |
|      (for HF NCORE is supported but not extensively tested yet)             |
|                                                                             |
 ----------------------------------------------------------------------------- 

 POTCAR:    PAW_PBE Mn_pv 02Aug2007               
   VRHFIN =Mn: 3p4s3d                                                           
   LEXCH  = PE                                                                  
   EATOM  =  2025.2664 eV,  148.8529 Ry                                         
                                                                                
   TITEL  = PAW_PBE Mn_pv 02Aug2007                                             
   LULTRA =        F    use ultrasoft PP ?                                      
   IUNSCR =        1    unscreen: 0-lin 1-nonlin 2-no                           
   RPACOR =    2.080    partial core radius                                     
   POMASS =   54.938; ZVAL   =   13.000    mass and valenz                      
   RCORE  =    2.300    outmost cutoff radius                                   
   RWIGS  =    2.500; RWIGS  =    1.323    wigner-seitz radius (au A)           
   ENMAX  =  269.864; ENMIN  =  202.398 eV                                      
   ICORE  =        3    local potential                                         
   LCOR   =        T    correct aug charges                                     
   LPAW   =        T    paw PP                                                  
   EAUG   =  569.085                                                            
   DEXC   =    0.000                                                            
   RMAX   =    2.343    core radius for proj-oper                               
   RAUG   =    1.300    factor for augmentation sphere                          
   RDEP   =    2.338    radius for radial grids                                 
   RDEPT  =    1.798    core radius for aug-charge                              
                                                                                
   Atomic configuration                                                         
    8 entries                                                                   
     n  l   j            E        occ.                                          
     1  0  0.50     -6424.8287   2.0000                                         
     2  0  0.50      -739.1154   2.0000                                         
     2  1  1.50      -625.3949   6.0000                                         
     3  0  0.50       -81.6100   2.0000                                         
     3  1  1.50       -50.4667   6.0000                                         
     3  2  2.50        -3.3745   6.0000                                         
     4  0  0.50        -4.1331   1.0000                                         
     4  3  2.50        -1.3606   0.0000                                         
   Description                                                                  
     l       E           TYP  RCUT    TYP  RCUT                                 
     1    -50.4666628     23  2.000                                             
     1     -1.3605826     23  2.000                                             
     2     -3.3744729     23  2.300                                             
     2     -4.7350555     23  2.300                                             
     0     -4.1331431     23  2.300                                             
     0      7.6656591     23  2.300                                             
     3      9.5240782     23  2.300                                             
  local pseudopotential read in
  partial core-charges read in
  partial kinetic energy density read in
  atomic valenz-charges read in
  non local Contribution for L=           1  read in
    real space projection operators read in
  non local Contribution for L=           1  read in
    real space projection operators read in
  non local Contribution for L=           2  read in
    real space projection operators read in
  non local Contribution for L=           2  read in
    real space projection operators read in
  non local Contribution for L=           0  read in
    real space projection operators read in
  non local Contribution for L=           0  read in
    real space projection operators read in
    PAW grid and wavefunctions read in
 
   number of l-projection  operators is LMAX  =           6
   number of lm-projection operators is LMMAX =          18
 
 POTCAR:   PAW_PBE O 08Apr2002                    
   VRHFIN =O: s2p4                                                              
   LEXCH  = PE                                                                  
   EATOM  =   432.3788 eV,   31.7789 Ry                                         
                                                                                
   TITEL  = PAW_PBE O 08Apr2002                                                 
   LULTRA =        F    use ultrasoft PP ?                                      
   IUNSCR =        0    unscreen: 0-lin 1-nonlin 2-no                           
   RPACOR =     .000    partial core radius                                     
   POMASS =   16.000; ZVAL   =    6.000    mass and valenz                      
   RCORE  =    1.520    outmost cutoff radius                                   
   RWIGS  =    1.550; RWIGS  =     .820    wigner-seitz radius (au A)           
   ENMAX  =  400.000; ENMIN  =  300.000 eV                                      
   ICORE  =        2    local potential                                         
   LCOR   =        T    correct aug charges                                     
   LPAW   =        T    paw PP                                                  
   EAUG   =  605.392                                                            
   DEXC   =     .000                                                            
   RMAX   =    2.264    core radius for proj-oper                               
   RAUG   =    1.300    factor for augmentation sphere                          
   RDEP   =    1.550    radius for radial grids                                 
   QCUT   =   -5.520; QGAM   =   11.041    optimization parameters              
                                                                                
   Description                                                                  
     l     E      TYP  RCUT    TYP  RCUT                                        
     0   .000     23  1.200                                                     
     0  -.700     23  1.200                                                     
     1   .000     23  1.520                                                     
     1   .600     23  1.520                                                     
     2   .000      7  1.500                                                     
  local pseudopotential read in
  atomic valenz-charges read in
  non local Contribution for L=           0  read in
    real space projection operators read in
  non local Contribution for L=           0  read in
    real space projection operators read in
  non local Contribution for L=           1  read in
    real space projection operators read in
  non local Contribution for L=           1  read in
    real space projection operators read in
    PAW grid and wavefunctions read in
 
   number of l-projection  operators is LMAX  =           4
   number of lm-projection operators is LMMAX =           8
 
 POTCAR:   PAW_PBE C 08Apr2002                    
   VRHFIN =C: s2p2                                                              
   LEXCH  = PE                                                                  
   EATOM  =   147.1560 eV,   10.8157 Ry                                         
                                                                                
   TITEL  = PAW_PBE C 08Apr2002                                                 
   LULTRA =        F    use ultrasoft PP ?                                      
   IUNSCR =        0    unscreen: 0-lin 1-nonlin 2-no                           
   RPACOR =     .000    partial core radius                                     
   POMASS =   12.011; ZVAL   =    4.000    mass and valenz                      
   RCORE  =    1.500    outmost cutoff radius                                   
   RWIGS  =    1.630; RWIGS  =     .863    wigner-seitz radius (au A)           
   ENMAX  =  400.000; ENMIN  =  300.000 eV                                      
   ICORE  =        2    local potential                                         
   LCOR   =        T    correct aug charges                                     
   LPAW   =        T    paw PP                                                  
   EAUG   =  644.873                                                            
   DEXC   =     .000                                                            
   RMAX   =    2.266    core radius for proj-oper                               
   RAUG   =    1.300    factor for augmentation sphere                          
   RDEP   =    1.501    radius for radial grids                                 
   RDEPT  =    1.300    core radius for aug-charge                              
   QCUT   =   -5.516; QGAM   =   11.032    optimization parameters              
                                                                                
   Description                                                                  
     l     E      TYP  RCUT    TYP  RCUT                                        
     0   .000     23  1.200                                                     
     0   .000     23  1.200                                                     
     1   .000     23  1.500                                                     
     1  2.500     23  1.500                                                     
     2   .000      7  1.500                                                     
  local pseudopotential read in
  atomic valenz-charges read in
  non local Contribution for L=           0  read in
    real space projection operators read in
  non local Contribution for L=           0  read in
    real space projection operators read in
  non local Contribution for L=           1  read in
    real space projection operators read in
  non local Contribution for L=           1  read in
    real space projection operators read in
    PAW grid and wavefunctions read in
 
   number of l-projection  operators is LMAX  =           4
   number of lm-projection operators is LMMAX =           8
 
 POTCAR:   PAW_PBE H 15Jun2001                    
   VRHFIN =H: ultrasoft test                                                    
   LEXCH  = PE                                                                  
   EATOM  =    12.4884 eV,     .9179 Ry                                         
                                                                                
   TITEL  = PAW_PBE H 15Jun2001                                                 
   LULTRA =        F    use ultrasoft PP ?                                      
   IUNSCR =        0    unscreen: 0-lin 1-nonlin 2-no                           
   RPACOR =     .000    partial core radius                                     
   POMASS =    1.000; ZVAL   =    1.000    mass and valenz                      
   RCORE  =    1.100    outmost cutoff radius                                   
   RWIGS  =     .700; RWIGS  =     .370    wigner-seitz radius (au A)           
   ENMAX  =  250.000; ENMIN  =  200.000 eV                                      
   RCLOC  =     .701    cutoff for local pot                                    
   LCOR   =        T    correct aug charges                                     
   LPAW   =        T    paw PP                                                  
   EAUG   =  400.000                                                            
   RMAX   =    2.174    core radius for proj-oper                               
   RAUG   =    1.200    factor for augmentation sphere                          
   RDEP   =    1.112    radius for radial grids                                 
   QCUT   =   -5.749; QGAM   =   11.498    optimization parameters              
                                                                                
   Description                                                                  
     l     E      TYP  RCUT    TYP  RCUT                                        
     0   .000     23  1.100                                                     
     0   .500     23  1.100                                                     
     1  -.300     23  1.100                                                     
  local pseudopotential read in
  atomic valenz-charges read in
  non local Contribution for L=           0  read in
    real space projection operators read in
  non local Contribution for L=           0  read in
    real space projection operators read in
  non local Contribution for L=           1  read in
    real space projection operators read in
    PAW grid and wavefunctions read in
 
   number of l-projection  operators is LMAX  =           3
   number of lm-projection operators is LMMAX =           5
 
 POTCAR:   PAW_PBE N 08Apr2002                    
   VRHFIN =N: s2p3                                                              
   LEXCH  = PE                                                                  
   EATOM  =   264.5486 eV,   19.4438 Ry                                         
                                                                                
   TITEL  = PAW_PBE N 08Apr2002                                                 
   LULTRA =        F    use ultrasoft PP ?                                      
   IUNSCR =        0    unscreen: 0-lin 1-nonlin 2-no                           
   RPACOR =     .000    partial core radius                                     
   POMASS =   14.001; ZVAL   =    5.000    mass and valenz                      
   RCORE  =    1.500    outmost cutoff radius                                   
   RWIGS  =    1.400; RWIGS  =     .741    wigner-seitz radius (au A)           
   ENMAX  =  400.000; ENMIN  =  300.000 eV                                      
   ICORE  =        2    local potential                                         
   LCOR   =        T    correct aug charges                                     
   LPAW   =        T    paw PP                                                  
   EAUG   =  627.112                                                            
   DEXC   =     .000                                                            
   RMAX   =    2.247    core radius for proj-oper                               
   RAUG   =    1.300    factor for augmentation sphere                          
   RDEP   =    1.514    radius for radial grids                                 
   QCUT   =   -5.562; QGAM   =   11.124    optimization parameters              
                                                                                
   Description                                                                  
     l     E      TYP  RCUT    TYP  RCUT                                        
     0   .000     23  1.200                                                     
     0   .000     23  1.200                                                     
     1   .000     23  1.500                                                     
     1   .700     23  1.500                                                     
     2   .000      7  1.500                                                     
  local pseudopotential read in
  atomic valenz-charges read in
  non local Contribution for L=           0  read in
    real space projection operators read in
  non local Contribution for L=           0  read in
    real space projection operators read in
  non local Contribution for L=           1  read in
    real space projection operators read in
  non local Contribution for L=           1  read in
    real space projection operators read in
    PAW grid and wavefunctions read in
 
   number of l-projection  operators is LMAX  =           4
   number of lm-projection operators is LMMAX =           8
 

 ----------------------------------------------------------------------------- 
|                                                                             |
|  ADVICE TO THIS USER RUNNING 'VASP/VAMP'   (HEAR YOUR MASTER'S VOICE ...):  |
|                                                                             |
|      You have a (more or less) 'large supercell' and for larger cells       |
|      it might be more efficient to use real space projection opertators     |
|      So try LREAL= Auto  in the INCAR   file.                               |
|      Mind: At the moment your POTCAR file does not contain real space       |
|       projectors, and has to be modified,  BUT if you                       |
|      want to do an extremely  accurate calculation you might also keep the  |
|      reciprocal projection scheme          (i.e. LREAL=.FALSE.)             |
|                                                                             |
 ----------------------------------------------------------------------------- 

  PAW_PBE Mn_pv 02Aug2007               :
 energy of atom  1       EATOM=-2025.2664
 kinetic energy error for atom=    0.0020 (will be added to EATOM!!)
 PAW_PBE O 08Apr2002                    :
 energy of atom  2       EATOM= -432.3788
 kinetic energy error for atom=    0.0091 (will be added to EATOM!!)
 PAW_PBE C 08Apr2002                    :
 energy of atom  3       EATOM= -147.1560
 kinetic energy error for atom=    0.0032 (will be added to EATOM!!)
 PAW_PBE H 15Jun2001                    :
 energy of atom  4       EATOM=  -12.4884
 kinetic energy error for atom=    0.0002 (will be added to EATOM!!)
 PAW_PBE N 08Apr2002                    :
 energy of atom  5       EATOM= -264.5486
 kinetic energy error for atom=    0.0061 (will be added to EATOM!!)
 
 
 POSCAR: C3 H8 Mn N2 O6                          
  positions in direct lattice
  velocities in cartesian coordinates
 exchange correlation table for  LEXCH =        8
   RHO(1)=    0.500       N(1)  =     2000
   RHO(2)=  100.500       N(2)  =     4000
 


--------------------------------------------------------------------------------------------------------


 ion  position               nearest neighbor table
   1  0.998  0.253  0.997-  10 2.18  13 2.19   5 2.19  18 2.21  28 2.23  21 2.24
   2  0.998  0.747  0.497-   9 2.18  14 2.19   6 2.19  17 2.21  27 2.23  22 2.24
   3  0.498  0.753  0.997-  12 2.18  15 2.19   7 2.19  20 2.21  26 2.23  23 2.24
   4  0.498  0.247  0.497-  11 2.18  16 2.19   8 2.19  19 2.21  25 2.23  24 2.24
   5  0.156  0.142  0.164-  33 1.26   1 2.19
   6  0.156  0.858  0.664-  34 1.26   2 2.19
   7  0.656  0.642  0.164-  35 1.26   3 2.19
   8  0.656  0.358  0.664-  36 1.26   4 2.19
   9  0.047  0.516  0.629-  37 1.27   2 2.18
  10  0.047  0.484  0.129-  38 1.27   1 2.18
  11  0.547  0.016  0.629-  39 1.27   4 2.18
  12  0.547  0.984  0.129-  40 1.27   3 2.18
  13  0.047  0.330  0.811-  37 1.27   1 2.19
  14  0.047  0.670  0.311-  38 1.27   2 2.19
  15  0.547  0.830  0.811-  39 1.27   3 2.19
  16  0.547  0.170  0.311-  40 1.27   4 2.19
  17  0.938  0.972  0.350-  41 1.26   2 2.21
  18  0.938  0.028  0.850-  42 1.26   1 2.21
  19  0.438  0.472  0.350-  43 1.26   4 2.21
  20  0.438  0.528  0.850-  44 1.26   3 2.21
  21  0.944  0.167  0.181-  41 1.28   1 2.24
  22  0.944  0.833  0.681-  42 1.28   2 2.24
  23  0.444  0.667  0.181-  43 1.28   3 2.24
  24  0.444  0.333  0.681-  44 1.28   4 2.24
  25  0.336  0.137  0.333-  33 1.28   4 2.23
  26  0.336  0.863  0.833-  34 1.28   3 2.23
  27  0.836  0.637  0.333-  35 1.28   2 2.23
  28  0.836  0.363  0.833-  36 1.28   1 2.23
  29  0.696  0.280  0.100-  57 1.09  53 1.09  49 1.09  93 1.48
  30  0.696  0.720  0.600-  58 1.09  54 1.09  50 1.09  94 1.48
  31  0.196  0.780  0.100-  59 1.09  55 1.09  51 1.09  95 1.48
  32  0.196  0.220  0.600-  60 1.09  56 1.09  52 1.09  96 1.48
  33  0.246  0.211  0.249-  61 1.11   5 1.26  25 1.28
  34  0.246  0.789  0.749-  62 1.11   6 1.26  26 1.28
  35  0.746  0.711  0.249-  63 1.11   7 1.26  27 1.28
  36  0.746  0.289  0.749-  64 1.11   8 1.26  28 1.28
  37  0.038  0.472  0.758-  65 1.11   9 1.27  13 1.27
  38  0.038  0.528  0.258-  66 1.11  10 1.27  14 1.27
  39  0.538  0.972  0.758-  67 1.11  11 1.27  15 1.27
  40  0.538  0.028  0.258-  68 1.11  12 1.27  16 1.27
  41  0.972  0.030  0.255-  69 1.11  17 1.26  21 1.28
  42  0.972  0.970  0.755-  70 1.11  18 1.26  22 1.28
  43  0.472  0.530  0.255-  71 1.11  19 1.26  23 1.28
  44  0.472  0.470  0.755-  72 1.11  20 1.26  24 1.28
  45  0.805  0.241  0.422-  81 1.09  89 1.09  85 1.09  93 1.48
  46  0.805  0.759  0.922-  82 1.09  90 1.09  86 1.09  94 1.48
  47  0.305  0.741  0.422-  83 1.09  87 1.09  91 1.09  95 1.48
  48  0.305  0.259  0.922-  84 1.09  88 1.09  92 1.09  96 1.48
  49  0.687  0.152  0.076-  29 1.09
  50  0.687  0.848  0.576-  30 1.09
  51  0.187  0.652  0.076-  31 1.09
  52  0.187  0.348  0.576-  32 1.09
  53  0.696  0.343  0.991-  29 1.09
  54  0.696  0.657  0.491-  30 1.09
  55  0.196  0.843  0.991-  31 1.09
  56  0.196  0.157  0.491-  32 1.09
  57  0.629  0.324  0.116-  29 1.09
  58  0.629  0.676  0.616-  30 1.09
  59  0.129  0.824  0.116-  31 1.09
  60  0.129  0.176  0.616-  32 1.09
  61  0.249  0.343  0.252-  33 1.11
  62  0.249  0.657  0.752-  34 1.11
  63  0.749  0.843  0.252-  35 1.11
  64  0.749  0.157  0.752-  36 1.11
  65  0.022  0.565  0.831-  37 1.11
  66  0.022  0.435  0.331-  38 1.11
  67  0.522  0.065  0.831-  39 1.11
  68  0.522  0.935  0.331-  40 1.11
  69  0.029  0.959  0.232-  41 1.11
  70  0.029  0.041  0.732-  42 1.11
  71  0.529  0.459  0.232-  43 1.11
  72  0.529  0.541  0.732-  44 1.11
  73  0.862  0.261  0.246-  93 1.06
  74  0.862  0.739  0.746-  94 1.06
  75  0.362  0.761  0.246-  95 1.06
  76  0.362  0.239  0.746-  96 1.06
  77  0.813  0.435  0.284-  93 1.06
  78  0.813  0.565  0.784-  94 1.06
  79  0.313  0.935  0.284-  95 1.06
  80  0.313  0.065  0.784-  96 1.06
  81  0.883  0.270  0.537-  45 1.09
  82  0.883  0.730  0.037-  46 1.09
  83  0.383  0.770  0.537-  47 1.09
  84  0.383  0.230  0.037-  48 1.09
  85  0.797  0.111  0.406-  45 1.09
  86  0.797  0.889  0.906-  46 1.09
  87  0.297  0.611  0.406-  47 1.09
  88  0.297  0.389  0.906-  48 1.09
  89  0.738  0.289  0.434-  45 1.09
  90  0.738  0.711  0.934-  46 1.09
  91  0.238  0.789  0.434-  47 1.09
  92  0.238  0.211  0.934-  48 1.09
  93  0.800  0.311  0.263-  77 1.06  73 1.06  45 1.48  29 1.48
  94  0.800  0.689  0.763-  78 1.06  74 1.06  46 1.48  30 1.48
  95  0.300  0.811  0.263-  79 1.06  75 1.06  47 1.48  31 1.48
  96  0.300  0.189  0.763-  80 1.06  76 1.06  48 1.48  32 1.48
 
  LATTYP: Found a simple monoclinic cell.
 ALAT       =    16.1816923745
 B/A-ratio  =     0.5184007643
 C/A-ratio  =     1.4145184343
 COS(beta)  =    -0.9554525259
  
  Lattice vectors:
  
 A1 = (  -5.3429128588,   0.0000000000, -15.2741759282)
 A2 = (   0.0000000000,  -8.3886016948,   0.0000000000)
 A3 = (   0.8441924179,   0.0000000000,  22.8737293122)


Analysis of symmetry for initial positions (statically):
=====================================================================
 Subroutine PRICEL returns following result:
 
  LATTYP: Found a base centered monoclinic cell.
 ALAT       =    14.3405522966
 B/A-ratio  =     0.5849566684
 C/A-ratio  =     1.7707430550
 COS(beta)  =    -0.8233570046
  
  Lattice vectors:
  
 A1 = (   7.1701779022,   4.1943022979,   0.0375352364)
 A2 = (   7.1701779022,  -4.1942993969,   0.0375352364)
 A3 = ( -24.1819911678,  -0.0000058020,  -7.7496943295)
 
   2 primitive cells build up your supercell.
 

 Routine SETGRP: Setting up the symmetry group for a 
 simple monoclinic supercell.


 Subroutine GETGRP returns: Found  2 space group operations
 (whereof  1 operations were pure point group operations)
 out of a pool of  4 trial point group operations.


The static configuration has the point symmetry C_1 .
 The point group associated with its full space group is C_1h.


Analysis of symmetry for dynamics (positions and initial velocities):
=====================================================================
 Subroutine PRICEL returns following result:
 
  LATTYP: Found a base centered monoclinic cell.
 ALAT       =    14.3405522966
 B/A-ratio  =     0.5849566684
 C/A-ratio  =     1.7707430550
 COS(beta)  =    -0.8233570046
  
  Lattice vectors:
  
 A1 = (   7.1701779022,   4.1943022979,   0.0375352364)
 A2 = (   7.1701779022,  -4.1942993969,   0.0375352364)
 A3 = ( -24.1819911678,  -0.0000058020,  -7.7496943295)
 
   2 primitive cells build up your supercell.
 

 Routine SETGRP: Setting up the symmetry group for a 
 simple monoclinic supercell.


 Subroutine GETGRP returns: Found  2 space group operations
 (whereof  1 operations were pure point group operations)
 out of a pool of  4 trial point group operations.


The dynamic configuration has the point symmetry C_1 .
 The point group associated with its full space group is C_1h.


Analysis of magnetic symmetry:
=====================================================================
 Subroutine PRICEL returns:
 Original cell was already a primitive cell.
 

 Subroutine MAGSYM returns: Found  2 space group operations
 (whereof  1 operations were pure point group operations)
 out of a pool of  2 trial space group operations
 (whereof  1 operations were pure point group operations)
 and found also     1 'primitive' translations


The magnetic configuration has the point symmetry C_1 .
 The point group associated with its full space group is C_1h.
 
 
 KPOINTS: Automatic mesh                          

Automatic generation of k-mesh.
Space group operators:
 irot       det(A)        alpha          n_x          n_y          n_z        tau_x        tau_y        tau_z
    1     1.000000     0.000000     1.000000     0.000000     0.000000     0.000000     0.000000     0.000000
    2    -1.000000   180.000000     0.000000     1.000000     0.000000     0.500000    -0.500000     1.500000
 
 Subroutine IBZKPT returns following result:
 ===========================================
 
 Found      8 irreducible k-points:
 
 Following reciprocal coordinates:
            Coordinates               Weight
  0.125000  0.125000  0.250000      4.000000
  0.375000  0.125000  0.250000      4.000000
 -0.375000  0.125000  0.250000      4.000000
 -0.125000  0.125000  0.250000      4.000000
  0.125000  0.375000  0.250000      4.000000
  0.375000  0.375000  0.250000      4.000000
 -0.375000  0.375000  0.250000      4.000000
 -0.125000  0.375000  0.250000      4.000000
 
 Following cartesian coordinates:
            Coordinates               Weight
  0.008518  0.014901  0.037939      4.000000
  0.025898  0.014901  0.048227      4.000000
 -0.026241  0.014901  0.017363      4.000000
 -0.008861  0.014901  0.027651      4.000000
  0.008518  0.044704  0.037939      4.000000
  0.025898  0.044704  0.048227      4.000000
 -0.026241  0.044704  0.017363      4.000000
 -0.008861  0.044704  0.027651      4.000000
 
 
 Subroutine IBZKPT_HF returns following result:
 ==============================================
 
 Found     32 k-points in 1st BZ
 the following     32 k-points will be used (e.g. in the exchange kernel)
 Following reciprocal coordinates:   # in IRBZ
  0.125000  0.125000  0.250000    0.03125000   1 t-inv F
  0.375000  0.125000  0.250000    0.03125000   2 t-inv F
 -0.375000  0.125000  0.250000    0.03125000   3 t-inv F
 -0.125000  0.125000  0.250000    0.03125000   4 t-inv F
  0.125000  0.375000  0.250000    0.03125000   5 t-inv F
  0.375000  0.375000  0.250000    0.03125000   6 t-inv F
 -0.375000  0.375000  0.250000    0.03125000   7 t-inv F
 -0.125000  0.375000  0.250000    0.03125000   8 t-inv F
  0.125000 -0.125000  0.250000    0.03125000   1 t-inv F
  0.375000 -0.125000  0.250000    0.03125000   2 t-inv F
 -0.375000 -0.125000  0.250000    0.03125000   3 t-inv F
 -0.125000 -0.125000  0.250000    0.03125000   4 t-inv F
  0.125000 -0.375000  0.250000    0.03125000   5 t-inv F
  0.375000 -0.375000  0.250000    0.03125000   6 t-inv F
 -0.375000 -0.375000  0.250000    0.03125000   7 t-inv F
 -0.125000 -0.375000  0.250000    0.03125000   8 t-inv F
 -0.125000 -0.125000 -0.250000    0.03125000   1 t-inv T
 -0.125000  0.125000 -0.250000    0.03125000   1 t-inv T
 -0.375000 -0.125000 -0.250000    0.03125000   2 t-inv T
 -0.375000  0.125000 -0.250000    0.03125000   2 t-inv T
  0.375000 -0.125000 -0.250000    0.03125000   3 t-inv T
  0.375000  0.125000 -0.250000    0.03125000   3 t-inv T
  0.125000 -0.125000 -0.250000    0.03125000   4 t-inv T
  0.125000  0.125000 -0.250000    0.03125000   4 t-inv T
 -0.125000 -0.375000 -0.250000    0.03125000   5 t-inv T
 -0.125000  0.375000 -0.250000    0.03125000   5 t-inv T
 -0.375000 -0.375000 -0.250000    0.03125000   6 t-inv T
 -0.375000  0.375000 -0.250000    0.03125000   6 t-inv T
  0.375000 -0.375000 -0.250000    0.03125000   7 t-inv T
  0.375000  0.375000 -0.250000    0.03125000   7 t-inv T
  0.125000 -0.375000 -0.250000    0.03125000   8 t-inv T
  0.125000  0.375000 -0.250000    0.03125000   8 t-inv T


--------------------------------------------------------------------------------------------------------




 Dimension of arrays:
   k-points           NKPTS =      8   k-points in BZ     NKDIM =      8   number of bands    NBANDS=    240
   number of dos      NEDOS =   6000   number of ions     NIONS =     96
   non local maximal  LDIM  =      6   non local SUM 2l+1 LMDIM =     18
   total plane-waves  NPLWV = 725760
   max r-space proj   IRMAX =      1   max aug-charges    IRDMAX=   6425
   dimension x,y,z NGX =   126 NGY =   72 NGZ =   80
   dimension x,y,z NGXF=   160 NGYF=   96 NGZF=   98
   support grid    NGXF=   160 NGYF=   96 NGZF=   98
   ions per type =               4  24  20  44   4
 NGX,Y,Z   is equivalent  to a cutoff of  14.61, 14.27, 15.06 a.u.
 NGXF,Y,Z  is equivalent  to a cutoff of  18.55, 19.03, 18.45 a.u.


 I would recommend the setting:
   dimension x,y,z NGX =   124 NGY =   72 NGZ =   76
 SYSTEM =  Mn-MOF                                  
 POSCAR =  C3 H8 Mn N2 O6                          

 Startparameter for this run:
   NWRITE =      2    write-flag & timer
   PREC   = high      normal or accurate (medium, high low for compatibility)
   ISTART =      0    job   : 0-new  1-cont  2-samecut
   ICHARG =      1    charge: 1-file 2-atom 10-const
   ISPIN  =      2    spin polarized calculation?
   LNONCOLLINEAR =      F non collinear calculations
   LSORBIT =      F    spin-orbit coupling
   INIWAV =      1    electr: 0-lowe 1-rand  2-diag
   LASPH  =      F    aspherical Exc in radial PAW
   METAGGA=      F    non-selfconsistent MetaGGA calc.

 Electronic Relaxation 1
   ENCUT  =  700.0 eV  51.45 Ry    7.17 a.u.  30.94 18.10 19.05*2*pi/ulx,y,z
   ENINI  =  700.0     initial cutoff
   ENAUG  =  644.9 eV  augmentation charge cutoff
   NELM   =   2000;   NELMIN=  2; NELMDL= -3     # of ELM steps 
   EDIFF  = 0.1E-05   stopping-criterion for ELM
   LREAL  =      F    real-space projection
   NLSPLINE    = F    spline interpolate recip. space projectors
   LCOMPAT=      F    compatible to vasp.4.4
   GGA_COMPAT  = T    GGA compatible to vasp.4.4-vasp.4.6
   LMAXPAW     = -100 max onsite density
   LMAXMIX     =    2 max onsite mixed and CHGCAR
   VOSKOWN=      0    Vosko Wilk Nusair interpolation
   ROPT   =    0.00000   0.00000   0.00000   0.00000
   ROPT   =    0.00000
 Ionic relaxation
   EDIFFG = 0.1E-04   stopping-criterion for IOM
   NSW    =      0    number of steps for IOM
   NBLOCK =      1;   KBLOCK =      1    inner block; outer block 
   IBRION =     -1    ionic relax: 0-MD 1-quasi-New 2-CG
   NFREE  =      0    steps in history (QN), initial steepest desc. (CG)
   ISIF   =      2    stress and relaxation
   IWAVPR =     10    prediction:  0-non 1-charg 2-wave 3-comb
   ISYM   =      2    0-nonsym 1-usesym 2-fastsym
   LCORR  =      T    Harris-Foulkes like correction to forces

   POTIM  = 0.5000    time-step for ionic-motion
   TEIN   =    0.0    initial temperature
   TEBEG  =    0.0;   TEEND  =   0.0 temperature during run
   SMASS  =  -3.00    Nose mass-parameter (am)
   estimated Nose-frequenzy (Omega)   =  0.10E-29 period in steps =****** mass=  -0.470E-26a.u.
   SCALEE = 1.0000    scale energy and forces
   NPACO  =    256;   APACO  = 16.0  distance and # of slots for P.C.
   PSTRESS=    0.0 pullay stress

  Mass of Ions in am
   POMASS =  54.94 16.00 12.01  1.00 14.00
  Ionic Valenz
   ZVAL   =  13.00  6.00  4.00  1.00  5.00
  Atomic Wigner-Seitz radii
   RWIGS  =  -1.00 -1.00 -1.00 -1.00 -1.00
  virtual crystal weights 
   VCA    =   1.00  1.00  1.00  1.00  1.00
   NELECT =     340.0000    total number of electrons
   NUPDOWN=      -1.0000    fix difference up-down

 DOS related values:
   EMIN   =  10.00;   EMAX   =-10.00  energy-range for DOS
   EFERMI =   0.00
   ISMEAR =     0;   SIGMA  =   0.10  broadening in eV -4-tet -1-fermi 0-gaus

 Electronic relaxation 2 (details)
   IALGO  =     38    algorithm
   LDIAG  =      T    sub-space diagonalisation (order eigenvalues)
   LSUBROT=      F    optimize rotation matrix (better conditioning)
   TURBO    =      0    0=normal 1=particle mesh
   IRESTART =      0    0=no restart 2=restart with 2 vectors
   NREBOOT  =      0    no. of reboots
   NMIN     =      0    reboot dimension
   EREF     =   0.00    reference energy to select bands
   IMIX   =      4    mixing-type and parameters
     AMIX     =   0.40;   BMIX     =  1.00
     AMIX_MAG =   1.60;   BMIX_MAG =  1.00
     AMIN     =   0.10
     WC   =   100.;   INIMIX=   1;  MIXPRE=   1;  MAXMIX= -45

 Intra band minimization:
   WEIMIN = 0.0000     energy-eigenvalue tresh-hold
   EBREAK =  0.10E-08  absolut break condition
   DEPER  =   0.30     relativ break condition  

   TIME   =   0.40     timestep for ELM

  volume/ion in A,a.u.               =       9.55        64.46
  Fermi-wavevector in a.u.,A,eV,Ry     =   1.176090  2.222489 18.819425  1.383189
  Thomas-Fermi vector in A             =   2.312460
 
 Write flags
   LWAVE  =      F    write WAVECAR
   LCHARG =      F    write CHGCAR
   LVTOT  =      F    write LOCPOT, total local potential
   LVHAR  =      F    write LOCPOT, Hartree potential only
   LELF   =      F    write electronic localiz. function (ELF)
   LORBIT =     10    0 simple, 1 ext, 2 COOP (PROOUT)


 Dipole corrections
   LMONO  =      F    monopole corrections only (constant potential shift)
   LDIPOL =      F    correct potential (dipole corrections)
   IDIPOL =      0    1-x, 2-y, 3-z, 4-all directions 
   EPSILON=  1.0000000 bulk dielectric constant

 LDA+U is selected, type is set to LDAUTYPE =  2
   angular momentum for each species LDAUL =     2   -1   -1   -1   -1
   U (eV)           for each species LDAUU =   4.5  0.0  0.0  0.0  0.0
   J (eV)           for each species LDAUJ =   0.5  0.0  0.0  0.0  0.0
 Exchange correlation treatment:
   GGA     =    --    GGA type
   LEXCH   =     8    internal setting for exchange type
   VOSKOWN=      0    Vosko Wilk Nusair interpolation
   LHFCALC =     F    Hartree Fock is set to
   LHFONE  =     F    Hartree Fock one center treatment
   AEXX    =    0.0000 exact exchange contribution

 Linear response parameters
   LEPSILON=     F    determine dielectric tensor
   LRPA    =     F    only Hartree local field effects (RPA)
   LNABLA  =     F    use nabla operator in PAW spheres
   LVEL    =     F    velocity operator in full k-point grid
   LINTERFAST=   F  fast interpolation
   KINTER  =     0    interpolate to denser k-point grid
   CSHIFT  =0.1000    complex shift for real part using Kramers Kronig
   OMEGAMAX=  -1.0    maximum frequency
   DEG_THRESHOLD= 0.2000000E-02 threshold for treating states as degnerate
   RTIME   =    0.100 relaxation time in fs

 Orbital magnetization related:
   ORBITALMAG=     F  switch on orbital magnetization
   LCHIMAG   =     F  perturbation theory with respect to B field
   DQ        =  0.001000  dq finite difference perturbation B field

 PEAD related settings:
   LPEAD      =     T    switch on PEAD
   IPEAD      =     4    finite difference order for dpsi/dk
   LCALCPOL   =     T    calculate macroscopic polarization
   LCALCEPS   =     F    calculate dielectric tensor
   EFIELD_PEAD=    0.0000    0.0000    0.0000
   SKIP_EDOTP =     F
   LRPA       =     F
   SKIP_SCF   =     F


--------------------------------------------------------------------------------------------------------


 Static calculation
 charge density and potential will be updated during run
 spin polarized calculation
 Variant of blocked Davidson
 Davidson routine will perform the subspace rotation
 perform sub-space diagonalisation
    after iterative eigenvector-optimisation
 modified Broyden-mixing scheme, WC =      100.0
 initial mixing is a Kerker type mixing with AMIX =  0.4000 and BMIX =      1.0000
 Hartree-type preconditioning will be used
 using additional bands           70
 reciprocal scheme for non local part
 use partial core corrections
 calculate Harris-corrections to forces 
   (improved forces if not selfconsistent)
 use gradient corrections 
 use of overlap-Matrix (Vanderbilt PP)
 Gauss-broadening in eV      SIGMA  =   0.10


--------------------------------------------------------------------------------------------------------


  energy-cutoff  :      700.00
  volume of cell :      917.03
      direct lattice vectors                 reciprocal lattice vectors
    14.340353741  0.000000000  0.075069160     0.069517860  0.000000000  0.041152605
     0.000000000  8.388601695  0.000000000     0.000000000  0.119209379  0.000000000
    -4.498720441  0.000000000  7.599553384    -0.000686704  0.000000000  0.131180170

  length of vectors
    14.340550226  8.388601695  8.831290803     0.080785332  0.119209379  0.131181968


 
 k-points in units of 2pi/SCALE and weight: Automatic mesh                          
   0.00851806  0.01490117  0.03793912       0.125
   0.02589752  0.01490117  0.04822727       0.125
  -0.02624087  0.01490117  0.01736282       0.125
  -0.00886141  0.01490117  0.02765097       0.125
   0.00851806  0.04470352  0.03793912       0.125
   0.02589752  0.04470352  0.04822727       0.125
  -0.02624087  0.04470352  0.01736282       0.125
  -0.00886141  0.04470352  0.02765097       0.125
 
 k-points in reciprocal lattice and weights: Automatic mesh                          
   0.12500000  0.12500000  0.25000000       0.125
   0.37500000  0.12500000  0.25000000       0.125
  -0.37500000  0.12500000  0.25000000       0.125
  -0.12500000  0.12500000  0.25000000       0.125
   0.12500000  0.37500000  0.25000000       0.125
   0.37500000  0.37500000  0.25000000       0.125
  -0.37500000  0.37500000  0.25000000       0.125
  -0.12500000  0.37500000  0.25000000       0.125
 
 position of ions in fractional coordinates (direct lattice) 
   0.99820302  0.25347582  0.99746331
   0.99820300  0.74652415  0.49746331
   0.49820311  0.75347570  0.99746338
   0.49820310  0.24652433  0.49746339
   0.15607290  0.14197922  0.16430592
   0.15607295  0.85802073  0.66430594
   0.65607307  0.64197913  0.16430597
   0.65607301  0.35802090  0.66430593
   0.04727991  0.51644915  0.62855036
   0.04727988  0.48355079  0.12854990
   0.54727956  0.01644875  0.62855090
   0.54727957  0.98355135  0.12855134
   0.04697197  0.32951199  0.81052024
   0.04697197  0.67048763  0.31052014
   0.54697186  0.82951209  0.81052014
   0.54697186  0.17048830  0.31052029
   0.93834011  0.97215077  0.35027595
   0.93833994  0.02784942  0.85027605
   0.43833973  0.47215050  0.35027592
   0.43833990  0.52784930  0.85027571
   0.94424152  0.16715308  0.18138539
   0.94424163  0.83284695  0.68138573
   0.44424157  0.66715287  0.18138546
   0.44424143  0.33284710  0.68138523
   0.33614082  0.13658341  0.33251408
   0.33614076  0.86341656  0.83251407
   0.83614046  0.63658360  0.33251394
   0.83614048  0.36341645  0.83251402
   0.69583769  0.28026415  0.10001752
   0.69583771  0.71973585  0.60001752
   0.19583701  0.78026483  0.10001839
   0.19583702  0.21973519  0.60001839
   0.24640711  0.21072308  0.24870646
   0.24640710  0.78927695  0.74870646
   0.74640705  0.71072217  0.24870600
   0.74640708  0.28927778  0.74870605
   0.03842846  0.47239599  0.75805899
   0.03842846  0.52760451  0.25805948
   0.53842916  0.97239653  0.75805871
   0.53842918  0.02760292  0.25805818
   0.97196436  0.03022762  0.25469396
   0.97196445  0.96977187  0.75469342
   0.47196479  0.53022853  0.25469365
   0.47196469  0.46977196  0.75469411
   0.80483231  0.24080029  0.42154840
   0.80483231  0.75919967  0.92154840
   0.30483328  0.74079957  0.42154894
   0.30483327  0.25920044  0.92154895
   0.68661285  0.15169222  0.07580717
   0.68661286  0.84830778  0.57580719
   0.18661287  0.65169176  0.07580704
   0.18661287  0.34830824  0.57580704
   0.69578352  0.34254310  0.99120231
   0.69578350  0.65745689  0.49120231
   0.19578354  0.84254329  0.99120173
   0.19578353  0.15745671  0.49120172
   0.62943882  0.32384416  0.11582812
   0.62943884  0.67615585  0.61582815
   0.12943934  0.82384367  0.11582789
   0.12943935  0.17615633  0.61582792
   0.24940721  0.34297140  0.25153456
   0.24940722  0.65702853  0.75153458
   0.74940704  0.84297142  0.25153461
   0.74940704  0.15702865  0.75153460
   0.02206502  0.56528201  0.83136090
   0.02206505  0.43471797  0.33136091
   0.52206442  0.06528222  0.83136070
   0.52206445  0.93471774  0.33136074
   0.02885296  0.95947443  0.23169065
   0.02885292  0.04052545  0.73169059
   0.52885282  0.45947430  0.23169037
   0.52885282  0.54052584  0.73169042
   0.86181409  0.26126901  0.24585929
   0.86181409  0.73873098  0.74585929
   0.36181409  0.76126903  0.24585945
   0.36181404  0.23873099  0.74585946
   0.81340948  0.43461290  0.28377203
   0.81340944  0.56538709  0.78377200
   0.31340947  0.93461302  0.28377193
   0.31340944  0.06538697  0.78377190
   0.88279612  0.27022793  0.53669225
   0.88279612  0.72977206  0.03669229
   0.38279570  0.77022796  0.53669169
   0.38279569  0.22977205  0.03669172
   0.79693427  0.11121421  0.40637730
   0.79693426  0.88878578  0.90637731
   0.29693425  0.61121479  0.40637734
   0.29693425  0.38878521  0.90637735
   0.73806406  0.28928028  0.43366367
   0.73806409  0.71071969  0.93366368
   0.23806356  0.78928081  0.43366373
   0.23806358  0.21071921  0.93366374
   0.80010177  0.31064219  0.26337183
   0.80010175  0.68935776  0.76337184
   0.30010175  0.81064222  0.26337144
   0.30010178  0.18935784  0.76337144
 
 position of ions in cartesian coordinates  (Angst):
   9.82727586  2.12630773  7.65520993
  12.07663582  6.26229377  3.85543321
   2.65709991  6.32060751  7.61767586
   4.90645998  2.06799438  3.81789929
   1.49897417  1.19100714  1.26036789
  -0.75038539  7.19759419  5.06014472
   8.66915321  5.38530723  1.29790284
   6.41979240  3.00329471  5.09767925
  -2.14966177  4.33228618  4.78025129
   0.09970010  4.05631500  0.98047110
   5.02050768  0.13798202  4.81778990
   7.26986613  8.25062056  1.01801662
  -2.97270932  2.76414484  6.16311795
  -0.72334857  5.62445364  2.36334050
   4.19746639  6.95844656  6.20065176
   6.44682602  1.43015846  2.40087620
  11.88033548  8.15498556  2.73238120
   9.63097243  0.23361771  6.53215862
   4.71015333  3.96068248  2.69484636
   2.46079647  4.42791755  6.49462147
  12.72475523  1.40218064  1.44933135
  10.47539506  6.98642138  5.24911066
   5.55457871  5.59647966  1.41179735
   3.30521756  2.79212171  5.21157223
   3.32449036  1.14574380  2.55219230
   1.07512934  7.24285761  6.35196894
  10.49466274  5.34004625  2.58972580
   8.24530244  3.04855585  6.38950311
   9.52860775  2.35102429  0.81232447
   7.27924776  6.03757738  4.61210115
   2.35841727  6.54533088  0.77479639
   0.10905712  1.84327096  4.57457308
   2.41470430  1.76767199  1.90855559
   0.16534397  6.62092999  5.70833226
   9.58488234  5.96196521  1.94608669
   7.33552229  2.42663609  5.74586374
  -2.85921783  3.96274183  5.76379457
  -0.60985973  4.42586409  1.96402161
   4.31097036  8.15704719  5.80132709
   6.56033324  0.23154988  2.00154633
  12.79251586  0.25356749  2.00852490
  10.54315930  8.13502998  5.80829746
   5.62234655  4.44787595  1.97098795
   3.37298273  3.94072988  5.77076817
   9.64515156  2.01997773  3.26399769
   7.39579133  6.36862366  7.06377438
   2.47498627  6.21427253  3.22646724
   0.22562589  2.17432924  7.02624403
   9.50523596  1.27248565  0.62764405
   7.25587578  7.11611609  4.42742091
   2.33505990  5.46678264  0.59010851
   0.08569969  2.92181913  4.38988524
   5.51863977  2.87345765  7.58492676
   7.76799969  5.51514395  3.78515009
  -1.65153419  7.06776006  7.54738775
   0.59782593  1.32084161  3.74761097
   8.50529706  2.71659964  0.92749342
   6.25593697  5.67200207  4.72727035
   1.33512856  6.91089639  0.88995714
  -0.91423162  1.47770529  4.68973405
   2.44500390  2.87705044  1.93027310
   0.19564384  5.51155067  5.73004993
   9.61517823  7.07135147  1.96780804
   7.36581792  1.31725081  5.76758468
  -3.42364014  4.74192561  6.31962797
  -1.17427941  3.64667589  2.51985134
   3.74652912  0.54762657  6.35716094
   5.99588948  7.84097481  2.55738458
  -0.62854982  8.04864887  1.76291143
  -2.87791029  0.33995186  5.56268763
   6.54162631  3.85434689  1.80044388
   4.29226593  4.53425596  5.60022092
  11.25266673  2.19168164  1.93311643
   9.00330641  6.19691993  5.73289314
   4.08248907  6.38598266  1.89558310
   1.83312806  2.00261916  5.69535986
  10.38796869  3.64579454  2.21760267
   8.13860802  4.74280711  6.01737915
   3.21779213  7.84009634  2.18006728
   0.96843149  0.54850529  5.97984380
  10.24518026  2.26683451  4.14489215
  12.49454032  6.12176711  0.34511575
   3.07499994  6.46113559  4.10735328
   5.32435979  1.92746618  0.30757684
   9.60014145  0.93293167  3.14811116
   7.35078107  7.45566990  6.94788791
   2.42996415  5.12723739  3.11057690
   0.18060392  3.26136430  6.91035363
   8.63316803  2.42665708  3.35105607
   6.38380827  5.96194438  7.15083282
   1.46298374  6.62096237  3.31352190
  -0.78637617  1.76763956  7.11329863
  10.28890618  2.60585364  2.06157125
   8.03954561  5.78274769  5.86134801
   3.11873082  6.80015468  2.02403372
   0.86937102  1.58844750  5.82381043
 


--------------------------------------------------------------------------------------------------------


 k-point  1 :   0.1250 0.1250 0.2500  plane waves:   38559
 k-point  2 :   0.3750 0.1250 0.2500  plane waves:   38545
 k-point  3 :  -0.3750 0.1250 0.2500  plane waves:   38570
 k-point  4 :  -0.1250 0.1250 0.2500  plane waves:   38560
 k-point  5 :   0.1250 0.3750 0.2500  plane waves:   38599
 k-point  6 :   0.3750 0.3750 0.2500  plane waves:   38571
 k-point  7 :  -0.3750 0.3750 0.2500  plane waves:   38584
 k-point  8 :  -0.1250 0.3750 0.2500  plane waves:   38577

 maximum and minimum number of plane-waves per node :     38599    38545

 maximum number of plane-waves:     38599
 maximum index in each direction: 
   IXMAX=   31   IYMAX=   17   IZMAX=   18
   IXMIN=  -31   IYMIN=  -18   IZMIN=  -19

 NGX is ok and might be reduce to 126
 NGY is ok and might be reduce to  72
 NGZ is ok and might be reduce to  76

 serial   3D FFT for wavefunctions
 parallel 3D FFT for charge:
    minimum data exchange during FFTs selected (reduces bandwidth)


 total amount of memory used by VASP on root node   441749. kBytes
========================================================================

   base      :      30000. kBytes
   nonl-proj :     281625. kBytes
   fftplans  :       4473. kBytes
   grid      :      62332. kBytes
   one-center:       2985. kBytes
   wavefun   :      60334. kBytes
 
     INWAV:  cpu time    0.0000: real time    0.0000
 Broyden mixing: mesh for mixing (old mesh)
   NGX = 61   NGY = 37   NGZ = 39
  (NGX  =160   NGY  = 96   NGZ  = 98)
  gives a total of  88023 points

 initial charge density was supplied:
 number of electron     340.0000082 magnetization       0.0000000
 keeping initial charge density in first step


--------------------------------------------------------------------------------------------------------


 Maximum index for augmentation-charges          366 (set IRDMAX)


--------------------------------------------------------------------------------------------------------


 First call to EWALD:  gamma=   0.182
 Maximum number of real-space cells 2x 3x 3
 Maximum number of reciprocal cells 4x 2x 3

 FEWALD executed in parallel
    FEWALD:  cpu time    0.0030: real time    0.0030


----------------------------------------- Iteration    1(   1)  ---------------------------------------


    POTLOK:  cpu time    0.1651: real time    0.1646
    SETDIJ:  cpu time    0.0184: real time    0.0186
atom =   1  type =  1  l = 2
 
 onsite density matrix
 
spin component  1
 
  0.9562  0.0000 -0.0003  0.0005  0.0000
  0.0000  0.9566  0.0003  0.0003 -0.0005
 -0.0003  0.0003  0.9564  0.0000  0.0004
  0.0005  0.0003  0.0000  0.9560  0.0000
  0.0000 -0.0005  0.0004  0.0000  0.9562
 
spin component  2
 
  0.0317 -0.0001 -0.0005  0.0010  0.0000
 -0.0001  0.0338  0.0006  0.0004 -0.0010
 -0.0005  0.0006  0.0338 -0.0000  0.0006
  0.0010  0.0004 -0.0000  0.0327 -0.0001
  0.0000 -0.0010  0.0006 -0.0001  0.0317
 
 occupancies and eigenvectors
 
  o =  0.0309  v =  0.0000  0.0000  0.0000  0.0000  0.0000 -0.7608  0.1147 -0.2383  0.4244  0.4137      0.0000  0.0000  0.0000  0.0000  0.0000  0.0000  0.0000  0.0000  0.0000  0.0000
  o =  0.0310  v =  0.0000  0.0000  0.0000  0.0000  0.0000 -0.3729 -0.3850  0.1905  0.2919 -0.7689      0.0000  0.0000  0.0000  0.0000  0.0000  0.0000  0.0000  0.0000  0.0000  0.0000
  o =  0.0331  v =  0.0000  0.0000  0.0000  0.0000  0.0000 -0.4253  0.2706 -0.3373 -0.7390 -0.2933      0.0000  0.0000  0.0000  0.0000  0.0000  0.0000  0.0000  0.0000  0.0000  0.0000
  o =  0.0341  v =  0.0000  0.0000  0.0000  0.0000  0.0000  0.3118  0.3513 -0.7024  0.4073 -0.3465      0.0000  0.0000  0.0000  0.0000  0.0000  0.0000  0.0000  0.0000  0.0000  0.0000
  o =  0.0345  v =  0.0000  0.0000  0.0000  0.0000  0.0000 -0.0634  0.8013  0.5475  0.1505 -0.1777      0.0000  0.0000  0.0000  0.0000  0.0000  0.0000  0.0000  0.0000  0.0000  0.0000
  o =  0.9556  v =  0.6533 -0.0568  0.3878 -0.6075 -0.2247  0.0000  0.0000  0.0000  0.0000  0.0000      0.0000  0.0000  0.0000  0.0000  0.0000  0.0000  0.0000  0.0000  0.0000  0.0000
  o =  0.9556  v =  0.0894  0.4875 -0.3951 -0.4376  0.6378  0.0000  0.0000  0.0000  0.0000  0.0000      0.0000  0.0000  0.0000  0.0000  0.0000  0.0000  0.0000  0.0000  0.0000  0.0000
  o =  0.9565  v =  0.5173 -0.0543  0.3235  0.5625  0.5553  0.0000  0.0000  0.0000  0.0000  0.0000      0.0000  0.0000  0.0000  0.0000  0.0000  0.0000  0.0000  0.0000  0.0000  0.0000
  o =  0.9568  v =  0.5006 -0.3088 -0.7673  0.1531 -0.2045  0.0000  0.0000  0.0000  0.0000  0.0000      0.0000  0.0000  0.0000  0.0000  0.0000  0.0000  0.0000  0.0000  0.0000  0.0000
  o =  0.9570  v = -0.2167 -0.8129  0.0058 -0.3156  0.4388  0.0000  0.0000  0.0000  0.0000  0.0000      0.0000  0.0000  0.0000  0.0000  0.0000  0.0000  0.0000  0.0000  0.0000  0.0000
atom =   2  type =  1  l = 2
 
 onsite density matrix
 
spin component  1
 
  0.0317 -0.0001  0.0005 -0.0010  0.0000
 -0.0001  0.0338 -0.0006 -0.0004  0.0010
  0.0005 -0.0006  0.0338 -0.0000  0.0006
 -0.0010 -0.0004 -0.0000  0.0327 -0.0001
  0.0000  0.0010  0.0006 -0.0001  0.0317
 
spin component  2
 
  0.9562  0.0000  0.0003 -0.0005  0.0000
  0.0000  0.9566 -0.0003 -0.0003  0.0005
  0.0003 -0.0003  0.9564  0.0000  0.0004
 -0.0005 -0.0003  0.0000  0.9560  0.0000
  0.0000  0.0005  0.0004  0.0000  0.9562
 
 occupancies and eigenvectors
 
  o =  0.0309  v =  0.7608 -0.1147 -0.2383  0.4244  0.4137  0.0000  0.0000  0.0000  0.0000  0.0000      0.0000  0.0000  0.0000  0.0000  0.0000  0.0000  0.0000  0.0000  0.0000  0.0000
  o =  0.0310  v =  0.3729  0.3850  0.1904  0.2919 -0.7689  0.0000  0.0000  0.0000  0.0000  0.0000      0.0000  0.0000  0.0000  0.0000  0.0000  0.0000  0.0000  0.0000  0.0000  0.0000
  o =  0.0331  v =  0.4253 -0.2706 -0.3373 -0.7390 -0.2933  0.0000  0.0000  0.0000  0.0000  0.0000      0.0000  0.0000  0.0000  0.0000  0.0000  0.0000  0.0000  0.0000  0.0000  0.0000
  o =  0.0341  v = -0.3118 -0.3513 -0.7024  0.4073 -0.3465  0.0000  0.0000  0.0000  0.0000  0.0000      0.0000  0.0000  0.0000  0.0000  0.0000  0.0000  0.0000  0.0000  0.0000  0.0000
  o =  0.0345  v =  0.0633 -0.8012  0.5475  0.1505 -0.1777  0.0000  0.0000  0.0000  0.0000  0.0000      0.0000  0.0000  0.0000  0.0000  0.0000  0.0000  0.0000  0.0000  0.0000  0.0000
  o =  0.9556  v =  0.0000  0.0000  0.0000  0.0000  0.0000  0.6533 -0.0569 -0.3879  0.6074  0.2248      0.0000  0.0000  0.0000  0.0000  0.0000  0.0000  0.0000  0.0000  0.0000  0.0000
  o =  0.9556  v =  0.0000  0.0000  0.0000  0.0000  0.0000 -0.0895 -0.4875 -0.3950 -0.4377  0.6377      0.0000  0.0000  0.0000  0.0000  0.0000  0.0000  0.0000  0.0000  0.0000  0.0000
  o =  0.9565  v =  0.0000  0.0000  0.0000  0.0000  0.0000  0.5173 -0.0543 -0.3234 -0.5625 -0.5553      0.0000  0.0000  0.0000  0.0000  0.0000  0.0000  0.0000  0.0000  0.0000  0.0000
  o =  0.9568  v =  0.0000  0.0000  0.0000  0.0000  0.0000  0.5006 -0.3088  0.7674 -0.1530  0.2046      0.0000  0.0000  0.0000  0.0000  0.0000  0.0000  0.0000  0.0000  0.0000  0.0000
  o =  0.9570  v =  0.0000  0.0000  0.0000  0.0000  0.0000 -0.2168 -0.8129 -0.0058  0.3156 -0.4388      0.0000  0.0000  0.0000  0.0000  0.0000  0.0000  0.0000  0.0000  0.0000  0.0000
atom =   3  type =  1  l = 2
 
 onsite density matrix
 
spin component  1
 
  0.0317 -0.0001 -0.0005  0.0010  0.0000
 -0.0001  0.0338  0.0006  0.0004 -0.0010
 -0.0005  0.0006  0.0338 -0.0000  0.0006
  0.0010  0.0004 -0.0000  0.0327 -0.0001
  0.0000 -0.0010  0.0006 -0.0001  0.0317
 
spin component  2
 
  0.9562  0.0000 -0.0003  0.0005  0.0000
  0.0000  0.9566  0.0003  0.0003 -0.0005
 -0.0003  0.0003  0.9564  0.0000  0.0004
  0.0005  0.0003  0.0000  0.9560  0.0000
  0.0000 -0.0005  0.0004  0.0000  0.9562
 
 occupancies and eigenvectors
 
  o =  0.0309  v = -0.7608  0.1147 -0.2383  0.4244  0.4137  0.0000  0.0000  0.0000  0.0000  0.0000      0.0000  0.0000  0.0000  0.0000  0.0000  0.0000  0.0000  0.0000  0.0000  0.0000
  o =  0.0310  v = -0.3729 -0.3850  0.1904  0.2919 -0.7689  0.0000  0.0000  0.0000  0.0000  0.0000      0.0000  0.0000  0.0000  0.0000  0.0000  0.0000  0.0000  0.0000  0.0000  0.0000
  o =  0.0331  v = -0.4253  0.2706 -0.3373 -0.7390 -0.2933  0.0000  0.0000  0.0000  0.0000  0.0000      0.0000  0.0000  0.0000  0.0000  0.0000  0.0000  0.0000  0.0000  0.0000  0.0000
  o =  0.0341  v =  0.3118  0.3513 -0.7024  0.4073 -0.3465  0.0000  0.0000  0.0000  0.0000  0.0000      0.0000  0.0000  0.0000  0.0000  0.0000  0.0000  0.0000  0.0000  0.0000  0.0000
  o =  0.0345  v = -0.0633  0.8012  0.5475  0.1505 -0.1777  0.0000  0.0000  0.0000  0.0000  0.0000      0.0000  0.0000  0.0000  0.0000  0.0000  0.0000  0.0000  0.0000  0.0000  0.0000
  o =  0.9556  v =  0.0000  0.0000  0.0000  0.0000  0.0000  0.6533 -0.0569  0.3879 -0.6074 -0.2248      0.0000  0.0000  0.0000  0.0000  0.0000  0.0000  0.0000  0.0000  0.0000  0.0000
  o =  0.9556  v =  0.0000  0.0000  0.0000  0.0000  0.0000  0.0895  0.4875 -0.3950 -0.4377  0.6377      0.0000  0.0000  0.0000  0.0000  0.0000  0.0000  0.0000  0.0000  0.0000  0.0000
  o =  0.9565  v =  0.0000  0.0000  0.0000  0.0000  0.0000  0.5173 -0.0543  0.3234  0.5625  0.5553      0.0000  0.0000  0.0000  0.0000  0.0000  0.0000  0.0000  0.0000  0.0000  0.0000
  o =  0.9568  v =  0.0000  0.0000  0.0000  0.0000  0.0000  0.5006 -0.3088 -0.7674  0.1530 -0.2046      0.0000  0.0000  0.0000  0.0000  0.0000  0.0000  0.0000  0.0000  0.0000  0.0000
  o =  0.9570  v =  0.0000  0.0000  0.0000  0.0000  0.0000 -0.2168 -0.8129  0.0058 -0.3156  0.4388      0.0000  0.0000  0.0000  0.0000  0.0000  0.0000  0.0000  0.0000  0.0000  0.0000
atom =   4  type =  1  l = 2
 
 onsite density matrix
 
spin component  1
 
  0.9562  0.0000  0.0003 -0.0005  0.0000
  0.0000  0.9566 -0.0003 -0.0003  0.0005
  0.0003 -0.0003  0.9564  0.0000  0.0004
 -0.0005 -0.0003  0.0000  0.9560  0.0000
  0.0000  0.0005  0.0004  0.0000  0.9562
 
spin component  2
 
  0.0317 -0.0001  0.0005 -0.0010  0.0000
 -0.0001  0.0338 -0.0006 -0.0004  0.0010
  0.0005 -0.0006  0.0338 -0.0000  0.0006
 -0.0010 -0.0004 -0.0000  0.0327 -0.0001
  0.0000  0.0010  0.0006 -0.0001  0.0317
 
 occupancies and eigenvectors
 
  o =  0.0309  v =  0.0000  0.0000  0.0000  0.0000  0.0000  0.7608 -0.1147 -0.2383  0.4244  0.4137      0.0000  0.0000  0.0000  0.0000  0.0000  0.0000  0.0000  0.0000  0.0000  0.0000
  o =  0.0310  v =  0.0000  0.0000  0.0000  0.0000  0.0000  0.3729  0.3850  0.1905  0.2919 -0.7689      0.0000  0.0000  0.0000  0.0000  0.0000  0.0000  0.0000  0.0000  0.0000  0.0000
  o =  0.0331  v =  0.0000  0.0000  0.0000  0.0000  0.0000  0.4253 -0.2706 -0.3373 -0.7390 -0.2933      0.0000  0.0000  0.0000  0.0000  0.0000  0.0000  0.0000  0.0000  0.0000  0.0000
  o =  0.0341  v =  0.0000  0.0000  0.0000  0.0000  0.0000 -0.3118 -0.3513 -0.7024  0.4073 -0.3465      0.0000  0.0000  0.0000  0.0000  0.0000  0.0000  0.0000  0.0000  0.0000  0.0000
  o =  0.0345  v =  0.0000  0.0000  0.0000  0.0000  0.0000  0.0634 -0.8013  0.5475  0.1505 -0.1777      0.0000  0.0000  0.0000  0.0000  0.0000  0.0000  0.0000  0.0000  0.0000  0.0000
  o =  0.9556  v =  0.6533 -0.0568 -0.3878  0.6075  0.2247  0.0000  0.0000  0.0000  0.0000  0.0000      0.0000  0.0000  0.0000  0.0000  0.0000  0.0000  0.0000  0.0000  0.0000  0.0000
  o =  0.9556  v = -0.0894 -0.4875 -0.3951 -0.4376  0.6378  0.0000  0.0000  0.0000  0.0000  0.0000      0.0000  0.0000  0.0000  0.0000  0.0000  0.0000  0.0000  0.0000  0.0000  0.0000
  o =  0.9565  v =  0.5173 -0.0543 -0.3235 -0.5625 -0.5553  0.0000  0.0000  0.0000  0.0000  0.0000      0.0000  0.0000  0.0000  0.0000  0.0000  0.0000  0.0000  0.0000  0.0000  0.0000
  o =  0.9568  v =  0.5006 -0.3088  0.7673 -0.1531  0.2045  0.0000  0.0000  0.0000  0.0000  0.0000      0.0000  0.0000  0.0000  0.0000  0.0000  0.0000  0.0000  0.0000  0.0000  0.0000
  o =  0.9570  v = -0.2167 -0.8129 -0.0058  0.3156 -0.4388  0.0000  0.0000  0.0000  0.0000  0.0000      0.0000  0.0000  0.0000  0.0000  0.0000  0.0000  0.0000  0.0000  0.0000  0.0000
     EDDAV:  cpu time   35.6691: real time   35.1356
       DOS:  cpu time    0.0033: real time    0.0033
    --------------------------------------------
      LOOP:  cpu time   35.8601: real time   35.3263

 eigenvalue-minimisations  :  8320
 total energy-change (2. order) : 0.2563899E+04  (-0.2000562E+05)
 number of electron     340.0000082 magnetization       0.0000000
 augmentation part      340.0000082 magnetization       0.0000000

 Free energy of the ion-electron system (eV)
  ---------------------------------------------------
  alpha Z        PSCENC =       566.32838792
  Ewald energy   TEWEN  =    -10874.93301494
  -Hartree energ DENC   =    -10915.94771654
  -exchange      EXHF   =         0.00000000
  -V(xc)+E(xc)   XCENC  =      1458.09910616
  PAW double counting   =     17048.58242164   -17309.49674033
  entropy T*S    EENTRO =        -0.06958211
  eigenvalues    EBANDS =      -437.29954225
  atomic energy  EATOM  =     23028.63531801
  Solvation  Ediel_sol  =         0.00000000
  ---------------------------------------------------
  free energy    TOTEN  =      2563.89863757 eV

  energy without entropy =     2563.96821968  energy(sigma->0) =     2563.93342862


--------------------------------------------------------------------------------------------------------




----------------------------------------- Iteration    1(   2)  ---------------------------------------


     EDDAV:  cpu time   37.5473: real time   36.9942
       DOS:  cpu time    0.0033: real time    0.0033
    --------------------------------------------
      LOOP:  cpu time   37.5510: real time   36.9981

 eigenvalue-minimisations  :  8960
 total energy-change (2. order) :-0.2897897E+04  (-0.2768717E+04)
 number of electron     340.0000082 magnetization       0.0000000
 augmentation part      340.0000082 magnetization       0.0000000

 Free energy of the ion-electron system (eV)
  ---------------------------------------------------
  alpha Z        PSCENC =       566.32838792
  Ewald energy   TEWEN  =    -10874.93301494
  -Hartree energ DENC   =    -10915.94771654
  -exchange      EXHF   =         0.00000000
  -V(xc)+E(xc)   XCENC  =      1458.09910616
  PAW double counting   =     17048.58242164   -17309.49674033
  entropy T*S    EENTRO =        -0.00000000
  eigenvalues    EBANDS =     -3335.26623112
  atomic energy  EATOM  =     23028.63531801
  Solvation  Ediel_sol  =         0.00000000
  ---------------------------------------------------
  free energy    TOTEN  =      -333.99846920 eV

  energy without entropy =     -333.99846920  energy(sigma->0) =     -333.99846920


--------------------------------------------------------------------------------------------------------




----------------------------------------- Iteration    1(   3)  ---------------------------------------


     EDDAV:  cpu time   39.0678: real time   38.6525
       DOS:  cpu time    0.0034: real time    0.0034
    CHARGE:  cpu time    1.5377: real time    1.5362
    MIXING:  cpu time    0.0012: real time    0.0012
    --------------------------------------------
      LOOP:  cpu time   40.6106: real time   40.1940

 eigenvalue-minimisations  :  9560
 total energy-change (2. order) :-0.2435000E+03  (-0.2412331E+03)
 number of electron     340.0000083 magnetization      -0.0000000
 augmentation part       48.8261938 magnetization       0.0004989

 Broyden mixing:
  rms(total) = 0.41985E+00    rms(broyden)= 0.41984E+00
  rms(prec ) = 0.45157E+00
  weight for this iteration     100.00

 Free energy of the ion-electron system (eV)
  ---------------------------------------------------
  alpha Z        PSCENC =       566.32838792
  Ewald energy   TEWEN  =    -10874.93301494
  -Hartree energ DENC   =    -10915.94771654
  -exchange      EXHF   =         0.00000000
  -V(xc)+E(xc)   XCENC  =      1458.09910616
  PAW double counting   =     17048.58242164   -17309.49674033
  entropy T*S    EENTRO =        -0.00000000
  eigenvalues    EBANDS =     -3578.76618485
  atomic energy  EATOM  =     23028.63531801
  Solvation  Ediel_sol  =         0.00000000
  ---------------------------------------------------
  free energy    TOTEN  =      -577.49842292 eV

  energy without entropy =     -577.49842292  energy(sigma->0) =     -577.49842292


--------------------------------------------------------------------------------------------------------




----------------------------------------- Iteration    1(   4)  ---------------------------------------


    POTLOK:  cpu time    0.1166: real time    0.1164
    SETDIJ:  cpu time    0.0174: real time    0.0174
atom =   1  type =  1  l = 2
 
 onsite density matrix
 
spin component  1
 
  0.9519  0.0038 -0.0001 -0.0174 -0.0019
  0.0038  0.9651 -0.0033  0.0005 -0.0204
 -0.0001 -0.0033  0.9413 -0.0015  0.0030
 -0.0174  0.0005 -0.0015  0.9708 -0.0029
 -0.0019 -0.0204  0.0030 -0.0029  0.9569
 
spin component  2
 
  0.0233 -0.0007  0.0013 -0.0243 -0.0006
 -0.0007  0.0448 -0.0042  0.0025 -0.0291
  0.0013 -0.0042  0.0116 -0.0015  0.0033
 -0.0243  0.0025 -0.0015  0.0499  0.0014
 -0.0006 -0.0291  0.0033  0.0014  0.0320
 
 occupancies and eigenvectors
 
  o =  0.0080  v =  0.0000  0.0000  0.0000  0.0000  0.0000 -0.5022  0.5036  0.0466 -0.3408  0.6131      0.0000  0.0000  0.0000  0.0000  0.0000  0.0000  0.0000  0.0000  0.0000  0.0000
  o =  0.0092  v =  0.0000  0.0000  0.0000  0.0000  0.0000  0.6876  0.3623 -0.1716  0.3661  0.4821      0.0000  0.0000  0.0000  0.0000  0.0000  0.0000  0.0000  0.0000  0.0000  0.0000
  o =  0.0111  v =  0.0000  0.0000  0.0000  0.0000  0.0000 -0.1270 -0.1135 -0.9791 -0.1108  0.0021      0.0000  0.0000  0.0000  0.0000  0.0000  0.0000  0.0000  0.0000  0.0000  0.0000
  o =  0.0642  v =  0.0000  0.0000  0.0000  0.0000  0.0000 -0.4945 -0.1625 -0.0108  0.8319  0.1918      0.0000  0.0000  0.0000  0.0000  0.0000  0.0000  0.0000  0.0000  0.0000  0.0000
  o =  0.0690  v =  0.0000  0.0000  0.0000  0.0000  0.0000  0.1199 -0.7588  0.0978 -0.2130  0.5957      0.0000  0.0000  0.0000  0.0000  0.0000  0.0000  0.0000  0.0000  0.0000  0.0000
  o =  0.9400  v =  0.0677  0.6062 -0.1152  0.0965  0.7781  0.0000  0.0000  0.0000  0.0000  0.0000      0.0000  0.0000  0.0000  0.0000  0.0000  0.0000  0.0000  0.0000  0.0000  0.0000
  o =  0.9406  v =  0.5066  0.0299  0.7951  0.3321  0.0092  0.0000  0.0000  0.0000  0.0000  0.0000      0.0000  0.0000  0.0000  0.0000  0.0000  0.0000  0.0000  0.0000  0.0000  0.0000
  o =  0.9412  v =  0.6848 -0.2191 -0.5846  0.3752 -0.0219  0.0000  0.0000  0.0000  0.0000  0.0000      0.0000  0.0000  0.0000  0.0000  0.0000  0.0000  0.0000  0.0000  0.0000  0.0000
  o =  0.9813  v = -0.5043  0.0021 -0.0371  0.8599 -0.0699  0.0000  0.0000  0.0000  0.0000  0.0000      0.0000  0.0000  0.0000  0.0000  0.0000  0.0000  0.0000  0.0000  0.0000  0.0000
  o =  0.9829  v =  0.1243  0.7640 -0.1072  0.0157 -0.6238  0.0000  0.0000  0.0000  0.0000  0.0000      0.0000  0.0000  0.0000  0.0000  0.0000  0.0000  0.0000  0.0000  0.0000  0.0000
atom =   2  type =  1  l = 2
 
 onsite density matrix
 
spin component  1
 
  0.0232 -0.0007 -0.0013  0.0243  0.0005
 -0.0007  0.0448  0.0042 -0.0025  0.0291
 -0.0013  0.0042  0.0116 -0.0015  0.0034
  0.0243 -0.0025 -0.0015  0.0498  0.0014
  0.0005  0.0291  0.0034  0.0014  0.0319
 
spin component  2
 
  0.9520  0.0038  0.0001  0.0174  0.0018
  0.0038  0.9651  0.0033 -0.0005  0.0203
  0.0001  0.0033  0.9413 -0.0015  0.0030
  0.0174 -0.0005 -0.0015  0.9709 -0.0029
  0.0018  0.0203  0.0030 -0.0029  0.9571
 
 occupancies and eigenvectors
 
  o =  0.0079  v = -0.4994  0.5047 -0.0465  0.3382 -0.6159  0.0000  0.0000  0.0000  0.0000  0.0000      0.0000  0.0000  0.0000  0.0000  0.0000  0.0000  0.0000  0.0000  0.0000  0.0000
  o =  0.0092  v =  0.6880  0.3575  0.1858 -0.3661 -0.4799  0.0000  0.0000  0.0000  0.0000  0.0000      0.0000  0.0000  0.0000  0.0000  0.0000  0.0000  0.0000  0.0000  0.0000  0.0000
  o =  0.0111  v =  0.1374  0.1185 -0.9765 -0.1160 -0.0043  0.0000  0.0000  0.0000  0.0000  0.0000      0.0000  0.0000  0.0000  0.0000  0.0000  0.0000  0.0000  0.0000  0.0000  0.0000
  o =  0.0641  v = -0.4940 -0.1638  0.0103 -0.8321 -0.1914  0.0000  0.0000  0.0000  0.0000  0.0000      0.0000  0.0000  0.0000  0.0000  0.0000  0.0000  0.0000  0.0000  0.0000  0.0000
  o =  0.0690  v =  0.1199 -0.7594 -0.0980  0.2138 -0.5947  0.0000  0.0000  0.0000  0.0000  0.0000      0.0000  0.0000  0.0000  0.0000  0.0000  0.0000  0.0000  0.0000  0.0000  0.0000
  o =  0.9402  v =  0.0000  0.0000  0.0000  0.0000  0.0000  0.0407 -0.5849 -0.2896  0.0237  0.7562      0.0000  0.0000  0.0000  0.0000  0.0000  0.0000  0.0000  0.0000  0.0000  0.0000
  o =  0.9406  v =  0.0000  0.0000  0.0000  0.0000  0.0000  0.4261  0.1868 -0.8134 -0.2988 -0.1806      0.0000  0.0000  0.0000  0.0000  0.0000  0.0000  0.0000  0.0000  0.0000  0.0000
  o =  0.9414  v =  0.0000  0.0000  0.0000  0.0000  0.0000  0.7398 -0.2008  0.4917 -0.4129  0.0061      0.0000  0.0000  0.0000  0.0000  0.0000  0.0000  0.0000  0.0000  0.0000  0.0000
  o =  0.9814  v =  0.0000  0.0000  0.0000  0.0000  0.0000 -0.5061 -0.0090  0.0351 -0.8596  0.0608      0.0000  0.0000  0.0000  0.0000  0.0000  0.0000  0.0000  0.0000  0.0000  0.0000
  o =  0.9828  v =  0.0000  0.0000  0.0000  0.0000  0.0000  0.1156  0.7633  0.1069 -0.0274  0.6260      0.0000  0.0000  0.0000  0.0000  0.0000  0.0000  0.0000  0.0000  0.0000  0.0000
atom =   3  type =  1  l = 2
 
 onsite density matrix
 
spin component  1
 
  0.0232 -0.0007  0.0013 -0.0243 -0.0005
 -0.0007  0.0448 -0.0042  0.0025 -0.0291
  0.0013 -0.0042  0.0116 -0.0015  0.0034
 -0.0243  0.0025 -0.0015  0.0498  0.0014
 -0.0005 -0.0291  0.0034  0.0014  0.0319
 
spin component  2
 
  0.9520  0.0038 -0.0001 -0.0174 -0.0018
  0.0038  0.9651 -0.0033  0.0005 -0.0203
 -0.0001 -0.0033  0.9413 -0.0015  0.0030
 -0.0174  0.0005 -0.0015  0.9709 -0.0029
 -0.0018 -0.0203  0.0030 -0.0029  0.9571
 
 occupancies and eigenvectors
 
  o =  0.0079  v = -0.4994  0.5047  0.0465 -0.3382  0.6159  0.0000  0.0000  0.0000  0.0000  0.0000      0.0000  0.0000  0.0000  0.0000  0.0000  0.0000  0.0000  0.0000  0.0000  0.0000
  o =  0.0092  v =  0.6880  0.3575 -0.1858  0.3661  0.4799  0.0000  0.0000  0.0000  0.0000  0.0000      0.0000  0.0000  0.0000  0.0000  0.0000  0.0000  0.0000  0.0000  0.0000  0.0000
  o =  0.0111  v = -0.1374 -0.1185 -0.9765 -0.1160 -0.0043  0.0000  0.0000  0.0000  0.0000  0.0000      0.0000  0.0000  0.0000  0.0000  0.0000  0.0000  0.0000  0.0000  0.0000  0.0000
  o =  0.0641  v = -0.4940 -0.1638 -0.0103  0.8321  0.1914  0.0000  0.0000  0.0000  0.0000  0.0000      0.0000  0.0000  0.0000  0.0000  0.0000  0.0000  0.0000  0.0000  0.0000  0.0000
  o =  0.0690  v =  0.1199 -0.7594  0.0980 -0.2138  0.5947  0.0000  0.0000  0.0000  0.0000  0.0000      0.0000  0.0000  0.0000  0.0000  0.0000  0.0000  0.0000  0.0000  0.0000  0.0000
  o =  0.9402  v =  0.0000  0.0000  0.0000  0.0000  0.0000 -0.0407  0.5849 -0.2896  0.0237  0.7562      0.0000  0.0000  0.0000  0.0000  0.0000  0.0000  0.0000  0.0000  0.0000  0.0000
  o =  0.9406  v =  0.0000  0.0000  0.0000  0.0000  0.0000  0.4261  0.1868  0.8134  0.2988  0.1806      0.0000  0.0000  0.0000  0.0000  0.0000  0.0000  0.0000  0.0000  0.0000  0.0000
  o =  0.9414  v =  0.0000  0.0000  0.0000  0.0000  0.0000  0.7398 -0.2008 -0.4917  0.4129 -0.0061      0.0000  0.0000  0.0000  0.0000  0.0000  0.0000  0.0000  0.0000  0.0000  0.0000
  o =  0.9814  v =  0.0000  0.0000  0.0000  0.0000  0.0000 -0.5061 -0.0090 -0.0351  0.8596 -0.0608      0.0000  0.0000  0.0000  0.0000  0.0000  0.0000  0.0000  0.0000  0.0000  0.0000
  o =  0.9828  v =  0.0000  0.0000  0.0000  0.0000  0.0000  0.1156  0.7633 -0.1069  0.0274 -0.6260      0.0000  0.0000  0.0000  0.0000  0.0000  0.0000  0.0000  0.0000  0.0000  0.0000
atom =   4  type =  1  l = 2
 
 onsite density matrix
 
spin component  1
 
  0.9519  0.0038  0.0001  0.0174  0.0019
  0.0038  0.9651  0.0033 -0.0005  0.0204
  0.0001  0.0033  0.9413 -0.0015  0.0030
  0.0174 -0.0005 -0.0015  0.9708 -0.0029
  0.0019  0.0204  0.0030 -0.0029  0.9569
 
spin component  2
 
  0.0233 -0.0007 -0.0013  0.0243  0.0006
 -0.0007  0.0448  0.0042 -0.0025  0.0291
 -0.0013  0.0042  0.0116 -0.0015  0.0033
  0.0243 -0.0025 -0.0015  0.0499  0.0014
  0.0006  0.0291  0.0033  0.0014  0.0320
 
 occupancies and eigenvectors
 
  o =  0.0080  v =  0.0000  0.0000  0.0000  0.0000  0.0000 -0.5022  0.5036 -0.0466  0.3408 -0.6131      0.0000  0.0000  0.0000  0.0000  0.0000  0.0000  0.0000  0.0000  0.0000  0.0000
  o =  0.0092  v =  0.0000  0.0000  0.0000  0.0000  0.0000  0.6876  0.3623  0.1716 -0.3661 -0.4821      0.0000  0.0000  0.0000  0.0000  0.0000  0.0000  0.0000  0.0000  0.0000  0.0000
  o =  0.0111  v =  0.0000  0.0000  0.0000  0.0000  0.0000  0.1270  0.1135 -0.9791 -0.1108  0.0021      0.0000  0.0000  0.0000  0.0000  0.0000  0.0000  0.0000  0.0000  0.0000  0.0000
  o =  0.0642  v =  0.0000  0.0000  0.0000  0.0000  0.0000 -0.4945 -0.1625  0.0108 -0.8319 -0.1918      0.0000  0.0000  0.0000  0.0000  0.0000  0.0000  0.0000  0.0000  0.0000  0.0000
  o =  0.0690  v =  0.0000  0.0000  0.0000  0.0000  0.0000  0.1199 -0.7588 -0.0978  0.2130 -0.5957      0.0000  0.0000  0.0000  0.0000  0.0000  0.0000  0.0000  0.0000  0.0000  0.0000
  o =  0.9400  v = -0.0677 -0.6062 -0.1152  0.0965  0.7781  0.0000  0.0000  0.0000  0.0000  0.0000      0.0000  0.0000  0.0000  0.0000  0.0000  0.0000  0.0000  0.0000  0.0000  0.0000
  o =  0.9406  v =  0.5066  0.0299 -0.7951 -0.3321 -0.0092  0.0000  0.0000  0.0000  0.0000  0.0000      0.0000  0.0000  0.0000  0.0000  0.0000  0.0000  0.0000  0.0000  0.0000  0.0000
  o =  0.9412  v =  0.6848 -0.2191  0.5846 -0.3752  0.0219  0.0000  0.0000  0.0000  0.0000  0.0000      0.0000  0.0000  0.0000  0.0000  0.0000  0.0000  0.0000  0.0000  0.0000  0.0000
  o =  0.9813  v = -0.5043  0.0021  0.0371 -0.8599  0.0699  0.0000  0.0000  0.0000  0.0000  0.0000      0.0000  0.0000  0.0000  0.0000  0.0000  0.0000  0.0000  0.0000  0.0000  0.0000
  o =  0.9829  v =  0.1243  0.7640  0.1072 -0.0157  0.6238  0.0000  0.0000  0.0000  0.0000  0.0000      0.0000  0.0000  0.0000  0.0000  0.0000  0.0000  0.0000  0.0000  0.0000  0.0000
     EDDAV:  cpu time   37.3787: real time   37.0155
       DOS:  cpu time    0.0033: real time    0.0033
    CHARGE:  cpu time    1.5100: real time    1.5082
    MIXING:  cpu time    0.0016: real time    0.0016
    --------------------------------------------
      LOOP:  cpu time   39.0294: real time   38.6643

 eigenvalue-minimisations  :  9000
 total energy-change (2. order) :-0.4718567E+01  (-0.4858639E+01)
 number of electron     340.0000082 magnetization      -0.0000000
 augmentation part       48.8083735 magnetization       0.0005445

 Broyden mixing:
  rms(total) = 0.46560E+00    rms(broyden)= 0.46560E+00
  rms(prec ) = 0.48113E+00
  weight for this iteration     100.00

 eigenvalues of (default mixing * dielectric matrix)
  average eigenvalue GAMMA=   0.3754
  0.3754

 Free energy of the ion-electron system (eV)
  ---------------------------------------------------
  alpha Z        PSCENC =       566.32838792
  Ewald energy   TEWEN  =    -10874.93301494
  -Hartree energ DENC   =    -10893.57658903
  -exchange      EXHF   =         0.00000000
  -V(xc)+E(xc)   XCENC  =      1456.90462668
  PAW double counting   =     17107.51797976   -17369.82876966
  entropy T*S    EENTRO =        -0.00000000
  eigenvalues    EBANDS =     -3603.26492823
  atomic energy  EATOM  =     23028.63531801
  Solvation  Ediel_sol  =         0.00000000
  ---------------------------------------------------
  free energy    TOTEN  =      -582.21698949 eV

  energy without entropy =     -582.21698949  energy(sigma->0) =     -582.21698949


--------------------------------------------------------------------------------------------------------




----------------------------------------- Iteration    1(   5)  ---------------------------------------


    POTLOK:  cpu time    0.1190: real time    0.1188
    SETDIJ:  cpu time    0.0171: real time    0.0171
atom =   1  type =  1  l = 2
 
 onsite density matrix
 
spin component  1
 
  0.9511  0.0038 -0.0001 -0.0179 -0.0019
  0.0038  0.9647 -0.0034  0.0005 -0.0210
 -0.0001 -0.0034  0.9401 -0.0015  0.0031
 -0.0179  0.0005 -0.0015  0.9706 -0.0028
 -0.0019 -0.0210  0.0031 -0.0028  0.9562
 
spin component  2
 
  0.0236 -0.0006  0.0012 -0.0234 -0.0006
 -0.0006  0.0445 -0.0040  0.0024 -0.0281
  0.0012 -0.0040  0.0124 -0.0015  0.0032
 -0.0234  0.0024 -0.0015  0.0494  0.0013
 -0.0006 -0.0281  0.0032  0.0013  0.0322
 
 occupancies and eigenvectors
 
  o =  0.0090  v =  0.0000  0.0000  0.0000  0.0000  0.0000 -0.5120  0.5006  0.0643 -0.3428  0.6046      0.0000  0.0000  0.0000  0.0000  0.0000  0.0000  0.0000  0.0000  0.0000  0.0000
  o =  0.0101  v =  0.0000  0.0000  0.0000  0.0000  0.0000  0.6802  0.3699 -0.1648  0.3618  0.4924      0.0000  0.0000  0.0000  0.0000  0.0000  0.0000  0.0000  0.0000  0.0000  0.0000
  o =  0.0119  v =  0.0000  0.0000  0.0000  0.0000  0.0000 -0.1305 -0.1034 -0.9793 -0.1146  0.0143      0.0000  0.0000  0.0000  0.0000  0.0000  0.0000  0.0000  0.0000  0.0000  0.0000
  o =  0.0631  v =  0.0000  0.0000  0.0000  0.0000  0.0000 -0.4941 -0.1641 -0.0114  0.8322  0.1905      0.0000  0.0000  0.0000  0.0000  0.0000  0.0000  0.0000  0.0000  0.0000  0.0000
  o =  0.0679  v =  0.0000  0.0000  0.0000  0.0000  0.0000  0.1185 -0.7583  0.0981 -0.2144  0.5962      0.0000  0.0000  0.0000  0.0000  0.0000  0.0000  0.0000  0.0000  0.0000  0.0000
  o =  0.9389  v = -0.0198  0.5749 -0.3111  0.0314  0.7559  0.0000  0.0000  0.0000  0.0000  0.0000      0.0000  0.0000  0.0000  0.0000  0.0000  0.0000  0.0000  0.0000  0.0000  0.0000
  o =  0.9394  v =  0.4754  0.1770  0.7767  0.3249  0.1840  0.0000  0.0000  0.0000  0.0000  0.0000      0.0000  0.0000  0.0000  0.0000  0.0000  0.0000  0.0000  0.0000  0.0000  0.0000
  o =  0.9402  v =  0.7105 -0.2293 -0.5360  0.3916 -0.0438  0.0000  0.0000  0.0000  0.0000  0.0000      0.0000  0.0000  0.0000  0.0000  0.0000  0.0000  0.0000  0.0000  0.0000  0.0000
  o =  0.9814  v = -0.5022  0.0168 -0.0380  0.8603 -0.0773  0.0000  0.0000  0.0000  0.0000  0.0000      0.0000  0.0000  0.0000  0.0000  0.0000  0.0000  0.0000  0.0000  0.0000  0.0000
  o =  0.9829  v =  0.1289  0.7651 -0.1058 -0.0002 -0.6220  0.0000  0.0000  0.0000  0.0000  0.0000      0.0000  0.0000  0.0000  0.0000  0.0000  0.0000  0.0000  0.0000  0.0000  0.0000
atom =   2  type =  1  l = 2
 
 onsite density matrix
 
spin component  1
 
  0.0236 -0.0006 -0.0012  0.0234  0.0005
 -0.0006  0.0445  0.0041 -0.0024  0.0281
 -0.0012  0.0041  0.0124 -0.0015  0.0032
  0.0234 -0.0024 -0.0015  0.0493  0.0012
  0.0005  0.0281  0.0032  0.0012  0.0321
 
spin component  2
 
  0.9511  0.0038  0.0001  0.0180  0.0019
  0.0038  0.9647  0.0033 -0.0005  0.0210
  0.0001  0.0033  0.9401 -0.0015  0.0031
  0.0180 -0.0005 -0.0015  0.9706 -0.0028
  0.0019  0.0210  0.0031 -0.0028  0.9562
 
 occupancies and eigenvectors
 
  o =  0.0090  v = -0.5124  0.5004 -0.0629  0.3429 -0.6045  0.0000  0.0000  0.0000  0.0000  0.0000      0.0000  0.0000  0.0000  0.0000  0.0000  0.0000  0.0000  0.0000  0.0000  0.0000
  o =  0.0101  v =  0.6793  0.3693  0.1694 -0.3614 -0.4927  0.0000  0.0000  0.0000  0.0000  0.0000      0.0000  0.0000  0.0000  0.0000  0.0000  0.0000  0.0000  0.0000  0.0000  0.0000
  o =  0.0119  v =  0.1330  0.1060 -0.9785 -0.1157  0.0113  0.0000  0.0000  0.0000  0.0000  0.0000      0.0000  0.0000  0.0000  0.0000  0.0000  0.0000  0.0000  0.0000  0.0000  0.0000
[...]
   0.125E+02 0.470E+02 0.613E-01   -.127E+02 -.527E+02 -.590E+00   0.208E+00 0.577E+01 0.516E+00   -.248E-04 -.106E-03 0.137E-04
   0.125E+02 -.470E+02 0.612E-01   -.127E+02 0.527E+02 -.590E+00   0.208E+00 -.577E+01 0.516E+00   -.276E-04 0.107E-03 0.158E-04
   0.372E+02 -.138E+02 -.624E+01   -.426E+02 0.158E+02 0.674E+01   0.543E+01 -.206E+01 -.511E+00   -.900E-04 0.232E-04 0.338E-04
   0.372E+02 0.138E+02 -.624E+01   -.426E+02 -.158E+02 0.674E+01   0.543E+01 0.206E+01 -.511E+00   -.921E-04 -.234E-04 0.319E-04
   0.372E+02 -.138E+02 -.624E+01   -.426E+02 0.158E+02 0.674E+01   0.543E+01 -.206E+01 -.511E+00   -.939E-04 0.152E-04 0.299E-04
   0.372E+02 0.138E+02 -.624E+01   -.426E+02 -.158E+02 0.674E+01   0.543E+01 0.206E+01 -.511E+00   -.936E-04 -.153E-04 0.315E-04
   -.177E+02 -.554E+01 0.269E+01   0.196E+02 0.674E+01 -.249E+01   -.192E+01 -.122E+01 -.208E+00   0.403E-03 0.241E-03 0.148E-04
   -.177E+02 0.553E+01 0.269E+01   0.196E+02 -.674E+01 -.249E+01   -.192E+01 0.122E+01 -.208E+00   0.397E-03 -.233E-03 0.325E-05
   -.177E+02 -.554E+01 0.269E+01   0.196E+02 0.674E+01 -.249E+01   -.192E+01 -.122E+01 -.208E+00   0.360E-03 0.189E-03 -.161E-04
   -.177E+02 0.553E+01 0.269E+01   0.196E+02 -.674E+01 -.249E+01   -.192E+01 0.122E+01 -.208E+00   0.353E-03 -.201E-03 -.109E-04
 -----------------------------------------------------------------------------------------------
   -.403E+02 -.653E-01 -.489E+02   -.643E-12 -.338E-12 0.130E-12   0.403E+02 0.600E-14 0.489E+02   0.454E-03 -.300E-05 0.350E-03
 
 
 POSITION                                       TOTAL-FORCE (eV/Angst)
 -----------------------------------------------------------------------------------
      9.82728      2.12631      7.65521         0.001155     -0.001075     -0.001010
     12.07664      6.26229      3.85543         0.001161      0.001079     -0.001007
      2.65710      6.32061      7.61768         0.001161     -0.001079     -0.001007
      4.90646      2.06799      3.81790         0.001155      0.001075     -0.001010
      1.49897      1.19101      1.26037        -0.000922     -0.000590     -0.001143
     -0.75039      7.19759      5.06014        -0.000971      0.000608     -0.001182
      8.66915      5.38531      1.29790        -0.000971     -0.000608     -0.001182
      6.41979      3.00329      5.09768        -0.000922      0.000590     -0.001143
     -2.14966      4.33229      4.78025         0.002743     -0.002131      0.002792
      0.09970      4.05632      0.98047         0.002488      0.002279      0.003155
      5.02051      0.13798      4.81779         0.002488     -0.002279      0.003155
      7.26987      8.25062      1.01802         0.002743      0.002131      0.002792
     -2.97271      2.76414      6.16312         0.000248      0.002227     -0.002605
     -0.72335      5.62445      2.36334         0.000190     -0.001811     -0.002446
      4.19747      6.95845      6.20065         0.000190      0.001811     -0.002446
      6.44683      1.43016      2.40088         0.000248     -0.002227     -0.002605
     11.88034      8.15499      2.73238        -0.000625      0.000402     -0.000867
      9.63097      0.23362      6.53216        -0.000243     -0.000620     -0.001177
      4.71015      3.96068      2.69485        -0.000243      0.000620     -0.001177
      2.46080      4.42792      6.49462        -0.000625     -0.000402     -0.000867
     12.72476      1.40218      1.44933        -0.000937     -0.001099      0.002363
     10.47540      6.98642      5.24911        -0.000915      0.000862      0.002219
      5.55458      5.59648      1.41180        -0.000915     -0.000862      0.002219
      3.30522      2.79212      5.21157        -0.000937      0.001099      0.002363
      3.32449      1.14574      2.55219         0.002290     -0.001044      0.002004
      1.07513      7.24286      6.35197         0.002324      0.001053      0.002030
     10.49466      5.34005      2.58973         0.002324     -0.001053      0.002030
      8.24530      3.04856      6.38950         0.002290      0.001044      0.002004
      9.52861      2.35102      0.81232        -0.000095     -0.000229     -0.001405
      7.27925      6.03758      4.61210        -0.000104      0.000237     -0.001404
      2.35842      6.54533      0.77480        -0.000104     -0.000237     -0.001404
      0.10906      1.84327      4.57457        -0.000095      0.000229     -0.001405
      2.41470      1.76767      1.90856         0.001637      0.002297      0.000883
      0.16534      6.62093      5.70833         0.001657     -0.002369      0.000896
      9.58488      5.96197      1.94609         0.001657      0.002369      0.000896
      7.33552      2.42664      5.74586         0.001637     -0.002297      0.000883
     -2.85922      3.96274      5.76379         0.001689     -0.001468     -0.000585
     -0.60986      4.42586      1.96402         0.002002      0.000907     -0.001105
      4.31097      8.15705      5.80133         0.002002     -0.000907     -0.001105
      6.56033      0.23155      2.00155         0.001689      0.001468     -0.000585
     12.79252      0.25357      2.00852         0.001572      0.002597     -0.001351
     10.54316      8.13503      5.80830         0.001138     -0.002162     -0.000899
      5.62235      4.44788      1.97099         0.001138      0.002162     -0.000899
      3.37298      3.94073      5.77077         0.001572     -0.002597     -0.001351
      9.64515      2.01998      3.26400        -0.001058     -0.000973     -0.000061
      7.39579      6.36862      7.06377        -0.001064      0.000981     -0.000059
      2.47499      6.21427      3.22647        -0.001064     -0.000981     -0.000059
      0.22563      2.17433      7.02624        -0.001058      0.000973     -0.000061
      9.50524      1.27249      0.62764         0.000333      0.001126     -0.000528
      7.25588      7.11612      4.42742         0.000331     -0.001122     -0.000526
      2.33506      5.46678      0.59011         0.000331      0.001122     -0.000526
      0.08570      2.92182      4.38989         0.000333     -0.001126     -0.000528
      5.51864      2.87346      7.58493         0.001409      0.001127      0.000761
      7.76800      5.51514      3.78515         0.001412     -0.001135      0.000758
     -1.65153      7.06776      7.54739         0.001412      0.001135      0.000758
      0.59783      1.32084      3.74761         0.001409     -0.001127      0.000761
      8.50530      2.71660      0.92749        -0.000316     -0.002254      0.001654
      6.25594      5.67200      4.72727        -0.000319      0.002249      0.001651
      1.33513      6.91090      0.88996        -0.000319     -0.002249      0.001651
     -0.91423      1.47771      4.68973        -0.000316      0.002254      0.001654
      2.44500      2.87705      1.93027         0.001300     -0.004015      0.000987
      0.19564      5.51155      5.73005         0.001296      0.004038      0.000985
      9.61518      7.07135      1.96781         0.001296     -0.004038      0.000985
      7.36582      1.31725      5.76758         0.001300      0.004015      0.000987
     -3.42364      4.74193      6.31963        -0.002299      0.001079      0.000988
     -1.17428      3.64668      2.51985        -0.002305     -0.001084      0.000993
      3.74653      0.54763      6.35716        -0.002305      0.001084      0.000993
      5.99589      7.84097      2.55738        -0.002299     -0.001079      0.000988
     -0.62855      8.04865      1.76291         0.001357     -0.000028     -0.000002
     -2.87791      0.33995      5.56269         0.001398      0.000048     -0.000014
      6.54163      3.85435      1.80044         0.001398     -0.000048     -0.000014
      4.29227      4.53426      5.60022         0.001357      0.000028     -0.000002
     11.25267      2.19168      1.93312        -0.002786     -0.002037     -0.000078
      9.00331      6.19692      5.73289        -0.002829      0.002021     -0.000063
      4.08249      6.38598      1.89558        -0.002829     -0.002021     -0.000063
      1.83313      2.00262      5.69536        -0.002786      0.002037     -0.000078
     10.38797      3.64579      2.21760        -0.002084     -0.002467      0.001143
      8.13861      4.74281      6.01738        -0.002084      0.002436      0.001149
      3.21779      7.84010      2.18007        -0.002084     -0.002436      0.001149
      0.96843      0.54851      5.97984        -0.002084      0.002467      0.001143
     10.24518      2.26683      4.14489         0.001456      0.000666     -0.000633
     12.49454      6.12177      0.34512         0.001455     -0.000668     -0.000641
      3.07500      6.46114      4.10735         0.001455      0.000668     -0.000641
      5.32436      1.92747      0.30758         0.001456     -0.000666     -0.000633
      9.60014      0.93293      3.14811        -0.003945      0.000414     -0.001638
      7.35078      7.45567      6.94789        -0.003941     -0.000418     -0.001639
      2.42996      5.12724      3.11058        -0.003941      0.000418     -0.001639
      0.18060      3.26136      6.91035        -0.003945     -0.000414     -0.001638
      8.63317      2.42666      3.35106        -0.001159     -0.000367     -0.001107
      6.38381      5.96194      7.15083        -0.001156      0.000363     -0.001107
      1.46298      6.62096      3.31352        -0.001156     -0.000363     -0.001107
     -0.78638      1.76764      7.11330        -0.001159      0.000367     -0.001107
     10.28891      2.60585      2.06157        -0.000965      0.000574     -0.000562
      8.03955      5.78275      5.86135        -0.000918     -0.000540     -0.000568
      3.11873      6.80015      2.02403        -0.000918      0.000540     -0.000568
      0.86937      1.58845      5.82381        -0.000965     -0.000574     -0.000562
 -----------------------------------------------------------------------------------
    total drift:                                0.008590     -0.065314      0.026849


--------------------------------------------------------------------------------------------------------



  FREE ENERGIE OF THE ION-ELECTRON SYSTEM (eV)
  ---------------------------------------------------
  free  energy   TOTEN  =      -588.20758932 eV

  energy  without entropy=     -588.20758932  energy(sigma->0) =     -588.20758932
 


--------------------------------------------------------------------------------------------------------


    POTLOK:  cpu time    0.1496: real time    0.1494


--------------------------------------------------------------------------------------------------------


     LOOP+:  cpu time 1099.6805: real time 1088.4898
    4ORBIT:  cpu time    0.0000: real time    0.0000
 


 total charge     
 
# of ion     s       p       d       tot
----------------------------------------
  1        0.177   6.154   4.927  11.258
  2        0.177   6.154   4.927  11.258
  3        0.177   6.154   4.927  11.258
  4        0.177   6.154   4.927  11.258
  5        1.570   3.578   0.000   5.148
  6        1.570   3.578   0.000   5.148
  7        1.570   3.578   0.000   5.148
  8        1.570   3.578   0.000   5.148
  9        1.568   3.575   0.000   5.143
 10        1.568   3.575   0.000   5.143
 11        1.568   3.575   0.000   5.143
 12        1.568   3.575   0.000   5.143
 13        1.569   3.573   0.000   5.142
 14        1.569   3.573   0.000   5.142
 15        1.569   3.573   0.000   5.142
 16        1.569   3.573   0.000   5.142
 17        1.570   3.575   0.000   5.144
 18        1.570   3.575   0.000   5.145
 19        1.570   3.575   0.000   5.144
 20        1.570   3.575   0.000   5.145
 21        1.567   3.573   0.000   5.141
 22        1.567   3.574   0.000   5.141
 23        1.567   3.573   0.000   5.141
 24        1.567   3.574   0.000   5.141
 25        1.568   3.576   0.000   5.144
 26        1.568   3.577   0.000   5.144
 27        1.568   3.577   0.000   5.144
 28        1.568   3.577   0.000   5.144
 29        0.842   1.778   0.000   2.620
 30        0.842   1.778   0.000   2.620
 31        0.842   1.778   0.000   2.620
 32        0.842   1.778   0.000   2.620
 33        0.874   1.707   0.000   2.581
 34        0.874   1.707   0.000   2.581
 35        0.874   1.707   0.000   2.581
 36        0.874   1.707   0.000   2.581
 37        0.873   1.708   0.000   2.581
 38        0.873   1.708   0.000   2.581
 39        0.873   1.708   0.000   2.581
 40        0.873   1.708   0.000   2.581
 41        0.874   1.704   0.000   2.578
 42        0.874   1.704   0.000   2.578
 43        0.874   1.704   0.000   2.578
 44        0.874   1.704   0.000   2.578
 45        0.842   1.779   0.000   2.621
 46        0.842   1.779   0.000   2.621
 47        0.842   1.779   0.000   2.621
 48        0.842   1.779   0.000   2.621
 49        0.644   0.047   0.000   0.691
 50        0.644   0.047   0.000   0.691
 51        0.644   0.047   0.000   0.691
 52        0.644   0.047   0.000   0.691
 53        0.646   0.047   0.000   0.693
 54        0.646   0.047   0.000   0.693
 55        0.646   0.047   0.000   0.693
 56        0.646   0.047   0.000   0.693
 57        0.642   0.048   0.000   0.690
 58        0.642   0.048   0.000   0.690
 59        0.642   0.048   0.000   0.690
 60        0.642   0.048   0.000   0.690
 61        0.639   0.044   0.000   0.683
 62        0.639   0.044   0.000   0.683
 63        0.639   0.044   0.000   0.683
 64        0.639   0.044   0.000   0.683
 65        0.641   0.044   0.000   0.685
 66        0.641   0.044   0.000   0.685
 67        0.641   0.044   0.000   0.685
 68        0.641   0.044   0.000   0.685
 69        0.639   0.045   0.000   0.684
 70        0.639   0.045   0.000   0.684
 71        0.639   0.045   0.000   0.684
 72        0.639   0.045   0.000   0.684
 73        0.584   0.087   0.000   0.672
 74        0.584   0.087   0.000   0.672
 75        0.584   0.087   0.000   0.672
 76        0.584   0.087   0.000   0.672
 77        0.584   0.088   0.000   0.672
 78        0.584   0.088   0.000   0.672
 79        0.584   0.088   0.000   0.672
 80        0.584   0.088   0.000   0.672
 81        0.641   0.048   0.000   0.689
 82        0.641   0.048   0.000   0.689
 83        0.641   0.048   0.000   0.689
 84        0.641   0.048   0.000   0.689
 85        0.644   0.047   0.000   0.691
 86        0.644   0.047   0.000   0.691
 87        0.644   0.047   0.000   0.691
 88        0.644   0.047   0.000   0.691
 89        0.644   0.047   0.000   0.691
 90        0.644   0.047   0.000   0.691
 91        0.644   0.047   0.000   0.691
 92        0.644   0.047   0.000   0.691
 93        1.210   2.734   0.000   3.944
 94        1.210   2.734   0.000   3.944
 95        1.210   2.734   0.000   3.944
 96        1.210   2.734   0.000   3.944
------------------------------------------------
tot       88.206 158.431  19.708 266.345
 


 magnetization (x)
 
# of ion     s       p       d       tot
----------------------------------------
  1        0.023   0.021   4.608   4.652
  2       -0.023  -0.021  -4.608  -4.652
  3       -0.023  -0.021  -4.608  -4.652
  4        0.023   0.021   4.608   4.652
  5        0.003   0.012   0.000   0.016
  6       -0.003  -0.012   0.000  -0.016
  7       -0.003  -0.012   0.000  -0.016
  8        0.003   0.012   0.000   0.016
  9       -0.003  -0.008   0.000  -0.011
 10        0.003   0.008   0.000   0.011
 11        0.003   0.008   0.000   0.011
 12       -0.003  -0.008   0.000  -0.011
 13        0.003   0.008   0.000   0.011
 14       -0.003  -0.008   0.000  -0.011
 15       -0.003  -0.008   0.000  -0.011
 16        0.003   0.008   0.000   0.011
 17       -0.003  -0.007   0.000  -0.010
 18        0.003   0.007   0.000   0.010
 19        0.003   0.007   0.000   0.010
 20       -0.003  -0.007   0.000  -0.010
 21        0.003   0.007   0.000   0.010
 22       -0.003  -0.007   0.000  -0.010
 23       -0.003  -0.007   0.000  -0.010
 24        0.003   0.007   0.000   0.010
 25        0.003   0.012   0.000   0.015
 26       -0.003  -0.012   0.000  -0.015
 27       -0.003  -0.012   0.000  -0.015
 28        0.003   0.012   0.000   0.015
 29        0.000   0.000   0.000   0.000
 30       -0.000  -0.000   0.000  -0.000
 31       -0.000  -0.000   0.000  -0.000
 32        0.000   0.000   0.000   0.000
 33        0.001   0.005   0.000   0.007
 34       -0.001  -0.005   0.000  -0.007
 35       -0.001  -0.005   0.000  -0.007
 36        0.001   0.005   0.000   0.007
 37       -0.000  -0.000   0.000  -0.000
 38        0.000   0.000   0.000   0.000
 39        0.000   0.000   0.000   0.000
 40       -0.000  -0.000   0.000  -0.000
 41       -0.000  -0.001   0.000  -0.001
 42        0.000   0.001   0.000   0.001
 43        0.000   0.001   0.000   0.001
 44       -0.000  -0.001   0.000  -0.001
 45       -0.000   0.000   0.000   0.000
 46        0.000  -0.000   0.000  -0.000
 47        0.000  -0.000   0.000  -0.000
 48       -0.000   0.000   0.000   0.000
 49       -0.000   0.000   0.000  -0.000
 50        0.000  -0.000   0.000   0.000
 51        0.000  -0.000   0.000   0.000
 52       -0.000   0.000   0.000  -0.000
 53       -0.000   0.000   0.000  -0.000
 54        0.000  -0.000   0.000   0.000
 55        0.000  -0.000   0.000   0.000
 56       -0.000   0.000   0.000  -0.000
 57       -0.000   0.000   0.000   0.000
 58        0.000  -0.000   0.000  -0.000
 59        0.000  -0.000   0.000  -0.000
 60       -0.000   0.000   0.000   0.000
 61        0.000   0.000   0.000   0.000
 62       -0.000  -0.000   0.000  -0.000
 63       -0.000  -0.000   0.000  -0.000
 64        0.000   0.000   0.000   0.000
 65        0.000   0.000   0.000   0.000
 66       -0.000  -0.000   0.000  -0.000
 67       -0.000  -0.000   0.000  -0.000
 68        0.000   0.000   0.000   0.000
 69       -0.000   0.000   0.000  -0.000
 70        0.000  -0.000   0.000   0.000
 71        0.000  -0.000   0.000   0.000
 72       -0.000   0.000   0.000  -0.000
 73        0.000   0.000   0.000   0.000
 74       -0.000  -0.000   0.000  -0.000
 75       -0.000  -0.000   0.000  -0.000
 76        0.000   0.000   0.000   0.000
 77       -0.000  -0.000   0.000  -0.000
 78        0.000   0.000   0.000   0.000
 79        0.000   0.000   0.000   0.000
 80       -0.000  -0.000   0.000  -0.000
 81        0.000  -0.000   0.000   0.000
 82       -0.000   0.000   0.000  -0.000
 83       -0.000   0.000   0.000  -0.000
 84        0.000  -0.000   0.000   0.000
 85        0.000  -0.000   0.000   0.000
 86       -0.000   0.000   0.000  -0.000
 87       -0.000   0.000   0.000  -0.000
 88        0.000  -0.000   0.000   0.000
 89       -0.000   0.000   0.000   0.000
 90        0.000  -0.000   0.000  -0.000
 91        0.000  -0.000   0.000  -0.000
 92       -0.000   0.000   0.000   0.000
 93       -0.000  -0.000   0.000  -0.000
 94        0.000   0.000   0.000   0.000
 95        0.000   0.000   0.000   0.000
 96       -0.000  -0.000   0.000  -0.000
------------------------------------------------
tot        0.000   0.000  -0.000  -0.000
 

 total amount of memory used by VASP on root node   441749. kBytes
========================================================================

   base      :      30000. kBytes
   nonl-proj :     281625. kBytes
   fftplans  :       4473. kBytes
   grid      :      62332. kBytes
   one-center:       2985. kBytes
   wavefun   :      60334. kBytes
 
  
  
 General timing and accounting informations for this job:
 ========================================================
  
                  Total CPU time used (sec):     1123.100
                            User time (sec):     1109.381
                          System time (sec):       13.719
                         Elapsed time (sec):     1112.225
  
                   Maximum memory used (kb):      695088.
                   Average memory used (kb):           0.
  
                          Minor page faults:      1241837
                          Major page faults:            0
                 Voluntary context switches:      1042028
