 vasp.5.4.4.18Apr17-6-g9f103f2a35 (build Apr 27 2017 14:21:45) complex          
  
 executed on      LinuxIFC_2017xe date 2022.03.19  14:41:01
 running on   48 total cores
 distrk:  each k-point on   48 cores,    1 groups
 distr:  one band on NCORES_PER_BAND=   1 cores,   48 groups


--------------------------------------------------------------------------------------------------------


 INCAR:
 POTCAR:    PAW_PBE Mg 13Apr2007                  
 POTCAR:   PAW_PBE O 08Apr2002                    
 POTCAR:   PAW_PBE C 08Apr2002                    
 POTCAR:   PAW_PBE H 15Jun2001                    
 POTCAR:   PAW_PBE N 08Apr2002                    

 ----------------------------------------------------------------------------- 
|                                                                             |
|           W    W    AA    RRRRR   N    N  II  N    N   GGGG   !!!           |
|           W    W   A  A   R    R  NN   N  II  NN   N  G    G  !!!           |
|           W    W  A    A  R    R  N N  N  II  N N  N  G       !!!           |
|           W WW W  AAAAAA  RRRRR   N  N N  II  N  N N  G  GGG   !            |
|           WW  WW  A    A  R   R   N   NN  II  N   NN  G    G                |
|           W    W  A    A  R    R  N    N  II  N    N   GGGG   !!!           |
|                                                                             |
|      For optimal performance we recommend to set                            |
|        NCORE= 4 - approx SQRT( number of cores)                             |
|      NCORE specifies how many cores store one orbital (NPAR=cpu/NCORE).     |
|      This setting can  greatly improve the performance of VASP for DFT.     |
|      The default,   NCORE=1            might be grossly inefficient         |
|      on modern multi-core architectures or massively parallel machines.     |
|      Do your own testing !!!!                                               |
|      Unfortunately you need to use the default for GW and RPA calculations. |
|      (for HF NCORE is supported but not extensively tested yet)             |
|                                                                             |
 ----------------------------------------------------------------------------- 

 POTCAR:    PAW_PBE Mg 13Apr2007                  
   VRHFIN =Mg: s2p0                                                             
   LEXCH  = PE                                                                  
   EATOM  =    23.0369 eV,    1.6932 Ry                                         
                                                                                
   TITEL  = PAW_PBE Mg 13Apr2007                                                
   LULTRA =        F    use ultrasoft PP ?                                      
   IUNSCR =        1    unscreen: 0-lin 1-nonlin 2-no                           
   RPACOR =    1.500    partial core radius                                     
   POMASS =   24.305; ZVAL   =    2.000    mass and valenz                      
   RCORE  =    2.000    outmost cutoff radius                                   
   RWIGS  =    2.880; RWIGS  =    1.524    wigner-seitz radius (au A)           
   ENMAX  =  126.143; ENMIN  =   94.607 eV                                      
   RCLOC  =    1.506    cutoff for local pot                                    
   LCOR   =        T    correct aug charges                                     
   LPAW   =        T    paw PP                                                  
   EAUG   =  454.734                                                            
   DEXC   =    0.000                                                            
   RMAX   =    2.045    core radius for proj-oper                               
   RAUG   =    1.300    factor for augmentation sphere                          
   RDEP   =    2.025    radius for radial grids                                 
   RDEPT  =    1.942    core radius for aug-charge                              
                                                                                
   Atomic configuration                                                         
    6 entries                                                                   
     n  l   j            E        occ.                                          
     1  0  0.50     -1259.6230   2.0000                                         
     2  0  0.50       -79.8442   2.0000                                         
     2  1  1.50       -46.6121   6.0000                                         
     3  0  0.50        -4.7055   2.0000                                         
     3  1  0.50        -1.3660   0.0000                                         
     3  2  1.50        -1.3606   0.0000                                         
   Description                                                                  
     l       E           TYP  RCUT    TYP  RCUT                                 
     0     -4.7054661     23  2.000                                             
     0     27.2116520     23  2.000                                             
     1      1.3605826     23  2.000                                             
     1     27.2116520     23  2.000                                             
     2     -1.3605826     23  2.000                                             
  local pseudopotential read in
  partial core-charges read in
  partial kinetic energy density read in
  atomic valenz-charges read in
  non local Contribution for L=           0  read in
    real space projection operators read in
  non local Contribution for L=           0  read in
    real space projection operators read in
  non local Contribution for L=           1  read in
    real space projection operators read in
  non local Contribution for L=           1  read in
    real space projection operators read in
  non local Contribution for L=           2  read in
    real space projection operators read in
    PAW grid and wavefunctions read in
 
   number of l-projection  operators is LMAX  =           5
   number of lm-projection operators is LMMAX =          13
 
 POTCAR:   PAW_PBE O 08Apr2002                    
   VRHFIN =O: s2p4                                                              
   LEXCH  = PE                                                                  
   EATOM  =   432.3788 eV,   31.7789 Ry                                         
                                                                                
   TITEL  = PAW_PBE O 08Apr2002                                                 
   LULTRA =        F    use ultrasoft PP ?                                      
   IUNSCR =        0    unscreen: 0-lin 1-nonlin 2-no                           
   RPACOR =     .000    partial core radius                                     
   POMASS =   16.000; ZVAL   =    6.000    mass and valenz                      
   RCORE  =    1.520    outmost cutoff radius                                   
   RWIGS  =    1.550; RWIGS  =     .820    wigner-seitz radius (au A)           
   ENMAX  =  400.000; ENMIN  =  300.000 eV                                      
   ICORE  =        2    local potential                                         
   LCOR   =        T    correct aug charges                                     
   LPAW   =        T    paw PP                                                  
   EAUG   =  605.392                                                            
   DEXC   =     .000                                                            
   RMAX   =    2.264    core radius for proj-oper                               
   RAUG   =    1.300    factor for augmentation sphere                          
   RDEP   =    1.550    radius for radial grids                                 
   QCUT   =   -5.520; QGAM   =   11.041    optimization parameters              
                                                                                
   Description                                                                  
     l     E      TYP  RCUT    TYP  RCUT                                        
     0   .000     23  1.200                                                     
     0  -.700     23  1.200                                                     
     1   .000     23  1.520                                                     
     1   .600     23  1.520                                                     
     2   .000      7  1.500                                                     
  local pseudopotential read in
  atomic valenz-charges read in
  non local Contribution for L=           0  read in
    real space projection operators read in
  non local Contribution for L=           0  read in
    real space projection operators read in
  non local Contribution for L=           1  read in
    real space projection operators read in
  non local Contribution for L=           1  read in
    real space projection operators read in
    PAW grid and wavefunctions read in
 
   number of l-projection  operators is LMAX  =           4
   number of lm-projection operators is LMMAX =           8
 
 POTCAR:   PAW_PBE C 08Apr2002                    
   VRHFIN =C: s2p2                                                              
   LEXCH  = PE                                                                  
   EATOM  =   147.1560 eV,   10.8157 Ry                                         
                                                                                
   TITEL  = PAW_PBE C 08Apr2002                                                 
   LULTRA =        F    use ultrasoft PP ?                                      
   IUNSCR =        0    unscreen: 0-lin 1-nonlin 2-no                           
   RPACOR =     .000    partial core radius                                     
   POMASS =   12.011; ZVAL   =    4.000    mass and valenz                      
   RCORE  =    1.500    outmost cutoff radius                                   
   RWIGS  =    1.630; RWIGS  =     .863    wigner-seitz radius (au A)           
   ENMAX  =  400.000; ENMIN  =  300.000 eV                                      
   ICORE  =        2    local potential                                         
   LCOR   =        T    correct aug charges                                     
   LPAW   =        T    paw PP                                                  
   EAUG   =  644.873                                                            
   DEXC   =     .000                                                            
   RMAX   =    2.266    core radius for proj-oper                               
   RAUG   =    1.300    factor for augmentation sphere                          
   RDEP   =    1.501    radius for radial grids                                 
   RDEPT  =    1.300    core radius for aug-charge                              
   QCUT   =   -5.516; QGAM   =   11.032    optimization parameters              
                                                                                
   Description                                                                  
     l     E      TYP  RCUT    TYP  RCUT                                        
     0   .000     23  1.200                                                     
     0   .000     23  1.200                                                     
     1   .000     23  1.500                                                     
     1  2.500     23  1.500                                                     
     2   .000      7  1.500                                                     
  local pseudopotential read in
  atomic valenz-charges read in
  non local Contribution for L=           0  read in
    real space projection operators read in
  non local Contribution for L=           0  read in
    real space projection operators read in
  non local Contribution for L=           1  read in
    real space projection operators read in
  non local Contribution for L=           1  read in
    real space projection operators read in
    PAW grid and wavefunctions read in
 
   number of l-projection  operators is LMAX  =           4
   number of lm-projection operators is LMMAX =           8
 
 POTCAR:   PAW_PBE H 15Jun2001                    
   VRHFIN =H: ultrasoft test                                                    
   LEXCH  = PE                                                                  
   EATOM  =    12.4884 eV,     .9179 Ry                                         
                                                                                
   TITEL  = PAW_PBE H 15Jun2001                                                 
   LULTRA =        F    use ultrasoft PP ?                                      
   IUNSCR =        0    unscreen: 0-lin 1-nonlin 2-no                           
   RPACOR =     .000    partial core radius                                     
   POMASS =    1.000; ZVAL   =    1.000    mass and valenz                      
   RCORE  =    1.100    outmost cutoff radius                                   
   RWIGS  =     .700; RWIGS  =     .370    wigner-seitz radius (au A)           
   ENMAX  =  250.000; ENMIN  =  200.000 eV                                      
   RCLOC  =     .701    cutoff for local pot                                    
   LCOR   =        T    correct aug charges                                     
   LPAW   =        T    paw PP                                                  
   EAUG   =  400.000                                                            
   RMAX   =    2.174    core radius for proj-oper                               
   RAUG   =    1.200    factor for augmentation sphere                          
   RDEP   =    1.112    radius for radial grids                                 
   QCUT   =   -5.749; QGAM   =   11.498    optimization parameters              
                                                                                
   Description                                                                  
     l     E      TYP  RCUT    TYP  RCUT                                        
     0   .000     23  1.100                                                     
     0   .500     23  1.100                                                     
     1  -.300     23  1.100                                                     
  local pseudopotential read in
  atomic valenz-charges read in
  non local Contribution for L=           0  read in
    real space projection operators read in
  non local Contribution for L=           0  read in
    real space projection operators read in
  non local Contribution for L=           1  read in
    real space projection operators read in
    PAW grid and wavefunctions read in
 
   number of l-projection  operators is LMAX  =           3
   number of lm-projection operators is LMMAX =           5
 
 POTCAR:   PAW_PBE N 08Apr2002                    
   VRHFIN =N: s2p3                                                              
   LEXCH  = PE                                                                  
   EATOM  =   264.5486 eV,   19.4438 Ry                                         
                                                                                
   TITEL  = PAW_PBE N 08Apr2002                                                 
   LULTRA =        F    use ultrasoft PP ?                                      
   IUNSCR =        0    unscreen: 0-lin 1-nonlin 2-no                           
   RPACOR =     .000    partial core radius                                     
   POMASS =   14.001; ZVAL   =    5.000    mass and valenz                      
   RCORE  =    1.500    outmost cutoff radius                                   
   RWIGS  =    1.400; RWIGS  =     .741    wigner-seitz radius (au A)           
   ENMAX  =  400.000; ENMIN  =  300.000 eV                                      
   ICORE  =        2    local potential                                         
   LCOR   =        T    correct aug charges                                     
   LPAW   =        T    paw PP                                                  
   EAUG   =  627.112                                                            
   DEXC   =     .000                                                            
   RMAX   =    2.247    core radius for proj-oper                               
   RAUG   =    1.300    factor for augmentation sphere                          
   RDEP   =    1.514    radius for radial grids                                 
   QCUT   =   -5.562; QGAM   =   11.124    optimization parameters              
                                                                                
   Description                                                                  
     l     E      TYP  RCUT    TYP  RCUT                                        
     0   .000     23  1.200                                                     
     0   .000     23  1.200                                                     
     1   .000     23  1.500                                                     
     1   .700     23  1.500                                                     
     2   .000      7  1.500                                                     
  local pseudopotential read in
  atomic valenz-charges read in
  non local Contribution for L=           0  read in
    real space projection operators read in
  non local Contribution for L=           0  read in
    real space projection operators read in
  non local Contribution for L=           1  read in
    real space projection operators read in
  non local Contribution for L=           1  read in
    real space projection operators read in
    PAW grid and wavefunctions read in
 
   number of l-projection  operators is LMAX  =           4
   number of lm-projection operators is LMMAX =           8
 

 ----------------------------------------------------------------------------- 
|                                                                             |
|  ADVICE TO THIS USER RUNNING 'VASP/VAMP'   (HEAR YOUR MASTER'S VOICE ...):  |
|                                                                             |
|      You have a (more or less) 'large supercell' and for larger cells       |
|      it might be more efficient to use real space projection opertators     |
|      So try LREAL= Auto  in the INCAR   file.                               |
|      Mind:          For very  accurate calculation you might also keep the  |
|      reciprocal projection scheme          (i.e. LREAL=.FALSE.)             |
|                                                                             |
 ----------------------------------------------------------------------------- 

  PAW_PBE Mg 13Apr2007                  :
 energy of atom  1       EATOM=  -23.0369
 kinetic energy error for atom=    0.0000 (will be added to EATOM!!)
 PAW_PBE O 08Apr2002                    :
 energy of atom  2       EATOM= -432.3788
 kinetic energy error for atom=    0.0091 (will be added to EATOM!!)
 PAW_PBE C 08Apr2002                    :
 energy of atom  3       EATOM= -147.1560
 kinetic energy error for atom=    0.0032 (will be added to EATOM!!)
 PAW_PBE H 15Jun2001                    :
 energy of atom  4       EATOM=  -12.4884
 kinetic energy error for atom=    0.0002 (will be added to EATOM!!)
 PAW_PBE N 08Apr2002                    :
 energy of atom  5       EATOM= -264.5486
 kinetic energy error for atom=    0.0061 (will be added to EATOM!!)
 
 
 POSCAR: C3 H3 Co O6, H5 N2                      
  positions in direct lattice
  velocities in cartesian coordinates
 exchange correlation table for  LEXCH =        8
   RHO(1)=    0.500       N(1)  =     2000
   RHO(2)=  100.500       N(2)  =     4000
 


--------------------------------------------------------------------------------------------------------


 ion  position               nearest neighbor table
   1  0.546  0.500  0.512-  10 2.09  13 2.09  21 2.09  27 2.09  19 2.10   5 2.12
   2  0.454  0.500  0.012-   9 2.09  14 2.09  22 2.09  28 2.09  20 2.10   6 2.12
   3  0.046  0.000  0.512-  12 2.09  15 2.09  23 2.09  25 2.09  17 2.10   7 2.12
   4  0.954  1.000  0.012-  11 2.09  16 2.09  24 2.09  26 2.09  18 2.10   8 2.12
   5  0.571  0.644  0.669-  29 1.28   1 2.12
   6  0.429  0.356  0.169-  30 1.28   2 2.12
   7  0.071  0.856  0.669-  31 1.28   3 2.12
   8  0.929  0.144  0.169-  32 1.28   4 2.12
   9  0.501  0.635  0.858-  29 1.27   2 2.09
  10  0.499  0.365  0.358-  30 1.27   1 2.09
  11  0.001  0.865  0.858-  31 1.27   4 2.09
  12  0.999  0.135  0.358-  32 1.27   3 2.09
  13  0.445  0.726  0.446-  33 1.27   1 2.09
  14  0.555  0.274  0.946-  34 1.27   2 2.09
  15  0.945  0.774  0.446-  35 1.27   3 2.09
  16  0.055  0.226  0.946-  36 1.27   4 2.09
  17  0.250  0.913  0.440-  33 1.27   3 2.10
  18  0.750  0.087  0.940-  34 1.27   4 2.10
  19  0.750  0.587  0.440-  35 1.27   1 2.10
  20  0.250  0.413  0.940-  36 1.27   2 2.10
  21  0.339  0.418  0.581-  37 1.26   1 2.09
  22  0.661  0.582  0.081-  38 1.26   2 2.09
  23  0.839  0.082  0.581-  39 1.26   3 2.09
  24  0.161  0.918  0.081-  40 1.26   4 2.09
  25  0.145  0.229  0.577-  37 1.28   3 2.09
  26  0.855  0.771  0.077-  38 1.28   4 2.09
  27  0.645  0.271  0.577-  39 1.28   1 2.09
  28  0.355  0.729  0.077-  40 1.28   2 2.09
  29  0.542  0.562  0.763-  41 1.10   9 1.27   5 1.28
  30  0.458  0.438  0.263-  42 1.10  10 1.27   6 1.28
  31  0.042  0.938  0.763-  43 1.10  11 1.27   7 1.28
  32  0.958  0.062  0.263-  44 1.10  12 1.27   8 1.28
  33  0.324  0.789  0.487-  45 1.10  13 1.27  17 1.27
  34  0.676  0.211  0.987-  46 1.10  14 1.27  18 1.27
  35  0.824  0.711  0.487-  47 1.10  15 1.27  19 1.27
  36  0.176  0.289  0.987-  48 1.10  16 1.27  20 1.27
  37  0.282  0.271  0.556-  49 1.11  21 1.26  25 1.28
  38  0.718  0.729  0.056-  50 1.11  22 1.26  26 1.28
  39  0.782  0.229  0.556-  51 1.11  23 1.26  27 1.28
  40  0.218  0.771  0.056-  52 1.11  24 1.26  28 1.28
  41  0.552  0.418  0.762-  29 1.10
  42  0.448  0.582  0.262-  30 1.10
  43  0.052  0.082  0.762-  31 1.10
  44  0.948  0.918  0.262-  32 1.10
  45  0.280  0.733  0.569-  33 1.10
  46  0.720  0.267  0.069-  34 1.10
  47  0.780  0.767  0.569-  35 1.10
  48  0.220  0.233  0.069-  36 1.10
  49  0.354  0.172  0.513-  37 1.11
  50  0.646  0.828  0.013-  38 1.11
  51  0.854  0.328  0.513-  39 1.11
  52  0.146  0.672  0.013-  40 1.11
  53  0.088  0.409  0.673-  77 1.05
  54  0.912  0.591  0.173-  78 1.05
  55  0.588  0.091  0.673-  79 1.05
  56  0.412  0.909  0.173-  80 1.05
  57  0.084  0.630  0.702-  77 1.05
  58  0.916  0.370  0.202-  78 1.05
  59  0.584  0.870  0.702-  79 1.05
  60  0.416  0.130  0.202-  80 1.05
  61  0.156  0.483  0.803-  77 1.05
  62  0.844  0.517  0.303-  78 1.05
  63  0.656  0.017  0.803-  79 1.05
  64  0.344  0.983  0.303-  80 1.05
  65  0.929  0.391  0.846-  73 1.03
  66  0.071  0.609  0.346-  74 1.03
  67  0.429  0.109  0.846-  75 1.03
  68  0.571  0.891  0.346-  76 1.03
  69  0.909  0.605  0.832-  73 1.03
  70  0.091  0.395  0.332-  74 1.03
  71  0.409  0.895  0.832-  75 1.03
  72  0.591  0.105  0.332-  76 1.03
  73  0.922  0.490  0.786-  69 1.03  65 1.03  77 1.45
  74  0.078  0.510  0.286-  70 1.03  66 1.03  78 1.45
  75  0.422  0.010  0.786-  71 1.03  67 1.03  79 1.45
  76  0.578  0.990  0.286-  72 1.03  68 1.03  80 1.45
  77  0.073  0.503  0.738-  53 1.05  61 1.05  57 1.05  73 1.45
  78  0.927  0.497  0.238-  54 1.05  62 1.05  58 1.05  74 1.45
  79  0.573  0.997  0.738-  55 1.05  63 1.05  59 1.05  75 1.45
  80  0.427  0.003  0.238-  56 1.05  64 1.05  60 1.05  76 1.45
 
  LATTYP: Found a simple orthorhombic cell.
 ALAT       =     7.6343909808
 B/A-ratio  =     1.1611993166
 C/A-ratio  =     1.4992346324
  
  Lattice vectors:
  
 A1 = (   0.0000000000,  -7.6343909808,   0.0000000000)
 A2 = (  -8.8650495899,   0.0000000000,   0.0000000000)
 A3 = (   0.0000000000,   0.0000000000, -11.4457433555)


Analysis of symmetry for initial positions (statically):
=====================================================================
 Subroutine PRICEL returns:
 Original cell was already a primitive cell.
 

 Routine SETGRP: Setting up the symmetry group for a 
 simple orthorhombic supercell.


 Subroutine GETGRP returns: Found  4 space group operations
 (whereof  1 operations were pure point group operations)
 out of a pool of  8 trial point group operations.


The static configuration has the point symmetry C_1 .
 The point group associated with its full space group is C_2v.


Analysis of symmetry for dynamics (positions and initial velocities):
=====================================================================
 Subroutine PRICEL returns:
 Original cell was already a primitive cell.
 

 Routine SETGRP: Setting up the symmetry group for a 
 simple orthorhombic supercell.


 Subroutine GETGRP returns: Found  4 space group operations
 (whereof  1 operations were pure point group operations)
 out of a pool of  8 trial point group operations.


The dynamic configuration has the point symmetry C_1 .
 The point group associated with its full space group is C_2v.


Analysis of structural, dynamic, and magnetic symmetry:
=====================================================================
 Subroutine PRICEL returns:
 Original cell was already a primitive cell.
 

 Routine SETGRP: Setting up the symmetry group for a 
 simple orthorhombic supercell.


 Subroutine GETGRP returns: Found  4 space group operations
 (whereof  1 operations were pure point group operations)
 out of a pool of  8 trial point group operations.


The magnetic configuration has the point symmetry C_1 .
 The point group associated with its full space group is C_2v.


 Subroutine INISYM returns: Found  4 space group operations
 (whereof  1 operations are pure point group operations),
 and found     1 'primitive' translations

 
 
 KPOINTS: Automatic mesh                          

Automatic generation of k-mesh.
Space group operators:
 irot       det(A)        alpha          n_x          n_y          n_z        tau_x        tau_y        tau_z
    1     1.000000     0.000000     1.000000     0.000000     0.000000     0.000000     0.000000     0.000000
    2     1.000000   180.000000     0.000000     0.000000     1.000000     0.000000     0.000000    -0.500000
    3    -1.000000   180.000000     1.000000     0.000000     0.000000    -0.500000    -0.500000    -0.500000
    4    -1.000000   180.000000     0.000000     1.000000     0.000000    -0.500000    -0.500000     0.000000
 
 Subroutine IBZKPT returns following result:
 ===========================================
 
 Found      4 irreducible k-points:
 
 Following reciprocal coordinates:
            Coordinates               Weight
  0.125000  0.125000  0.250000      8.000000
  0.375000  0.125000  0.250000      8.000000
  0.125000  0.375000  0.250000      8.000000
  0.375000  0.375000  0.250000      8.000000
 
 Following cartesian coordinates:
            Coordinates               Weight
  0.014100  0.016373  0.021842      8.000000
  0.042301  0.016373  0.021842      8.000000
  0.014100  0.049120  0.021842      8.000000
  0.042301  0.049120  0.021842      8.000000
 
 
 Subroutine IBZKPT_HF returns following result:
 ==============================================
 
 Found     32 k-points in 1st BZ
 the following     32 k-points will be used (e.g. in the exchange kernel)
 Following reciprocal coordinates:   # in IRBZ
  0.125000  0.125000  0.250000    0.03125000   1 t-inv F
  0.375000  0.125000  0.250000    0.03125000   2 t-inv F
  0.125000  0.375000  0.250000    0.03125000   3 t-inv F
  0.375000  0.375000  0.250000    0.03125000   4 t-inv F
 -0.125000 -0.125000  0.250000    0.03125000   1 t-inv F
 -0.125000  0.125000  0.250000    0.03125000   1 t-inv F
  0.125000 -0.125000  0.250000    0.03125000   1 t-inv F
 -0.375000 -0.125000  0.250000    0.03125000   2 t-inv F
 -0.375000  0.125000  0.250000    0.03125000   2 t-inv F
  0.375000 -0.125000  0.250000    0.03125000   2 t-inv F
 -0.125000 -0.375000  0.250000    0.03125000   3 t-inv F
 -0.125000  0.375000  0.250000    0.03125000   3 t-inv F
  0.125000 -0.375000  0.250000    0.03125000   3 t-inv F
 -0.375000 -0.375000  0.250000    0.03125000   4 t-inv F
 -0.375000  0.375000  0.250000    0.03125000   4 t-inv F
  0.375000 -0.375000  0.250000    0.03125000   4 t-inv F
 -0.125000 -0.125000 -0.250000    0.03125000   1 t-inv T
  0.125000  0.125000 -0.250000    0.03125000   1 t-inv T
  0.125000 -0.125000 -0.250000    0.03125000   1 t-inv T
 -0.125000  0.125000 -0.250000    0.03125000   1 t-inv T
 -0.375000 -0.125000 -0.250000    0.03125000   2 t-inv T
  0.375000  0.125000 -0.250000    0.03125000   2 t-inv T
  0.375000 -0.125000 -0.250000    0.03125000   2 t-inv T
 -0.375000  0.125000 -0.250000    0.03125000   2 t-inv T
 -0.125000 -0.375000 -0.250000    0.03125000   3 t-inv T
  0.125000  0.375000 -0.250000    0.03125000   3 t-inv T
  0.125000 -0.375000 -0.250000    0.03125000   3 t-inv T
 -0.125000  0.375000 -0.250000    0.03125000   3 t-inv T
 -0.375000 -0.375000 -0.250000    0.03125000   4 t-inv T
  0.375000  0.375000 -0.250000    0.03125000   4 t-inv T
  0.375000 -0.375000 -0.250000    0.03125000   4 t-inv T
 -0.375000  0.375000 -0.250000    0.03125000   4 t-inv T


--------------------------------------------------------------------------------------------------------




 Dimension of arrays:
   k-points           NKPTS =      4   k-points in BZ     NKDIM =      4   number of bands    NBANDS=    240
   number of dos      NEDOS =    301   number of ions     NIONS =     80
   non local maximal  LDIM  =      5   non local SUM 2l+1 LMDIM =     13
   total plane-waves  NPLWV = 560000
   max r-space proj   IRMAX =      1   max aug-charges    IRDMAX=   7309
   dimension x,y,z NGX =    80 NGY =   70 NGZ =  100
   dimension x,y,z NGXF=    98 NGYF=   84 NGZF=  126
   support grid    NGXF=    98 NGYF=   84 NGZF=  126
   ions per type =               4  24  12  32   8
   NGX,Y,Z   is equivalent  to a cutoff of  15.00, 15.24, 14.52 a.u.
   NGXF,Y,Z  is equivalent  to a cutoff of  18.38, 18.29, 18.30 a.u.

 SYSTEM =  Mg-MOF                                  
 POSCAR =  C3 H3 Co O6, H5 N2                      

 Startparameter for this run:
   NWRITE =      2    write-flag & timer
   PREC   = high      normal or accurate (medium, high low for compatibility)
   ISTART =      0    job   : 0-new  1-cont  2-samecut
   ICHARG =      1    charge: 1-file 2-atom 10-const
   ISPIN  =      2    spin polarized calculation?
   LNONCOLLINEAR =      F non collinear calculations
   LSORBIT =      F    spin-orbit coupling
   INIWAV =      1    electr: 0-lowe 1-rand  2-diag
   LASPH  =      F    aspherical Exc in radial PAW
   METAGGA=      F    non-selfconsistent MetaGGA calc.

 Electronic Relaxation 1
   ENCUT  =  700.0 eV  51.45 Ry    7.17 a.u.  19.12 16.47 24.69*2*pi/ulx,y,z
   ENINI  =  700.0     initial cutoff
   ENAUG  =  644.9 eV  augmentation charge cutoff
   NELM   =   2000;   NELMIN=  2; NELMDL= -3     # of ELM steps 
   EDIFF  = 0.1E-06   stopping-criterion for ELM
   LREAL  =      F    real-space projection
   NLSPLINE    = F    spline interpolate recip. space projectors
   LCOMPAT=      F    compatible to vasp.4.4
   GGA_COMPAT  = T    GGA compatible to vasp.4.4-vasp.4.6
   LMAXPAW     = -100 max onsite density
   LMAXMIX     =    2 max onsite mixed and CHGCAR
   VOSKOWN=      0    Vosko Wilk Nusair interpolation
   ROPT   =    0.00000   0.00000   0.00000   0.00000
   ROPT   =    0.00000
 Ionic relaxation
   EDIFFG = 0.1E-05   stopping-criterion for IOM
   NSW    =      0    number of steps for IOM
   NBLOCK =      1;   KBLOCK =      1    inner block; outer block 
   IBRION =     -1    ionic relax: 0-MD 1-quasi-New 2-CG
   NFREE  =      0    steps in history (QN), initial steepest desc. (CG)
   ISIF   =      2    stress and relaxation
   IWAVPR =     10    prediction:  0-non 1-charg 2-wave 3-comb
   ISYM   =      2    0-nonsym 1-usesym 2-fastsym
   LCORR  =      T    Harris-Foulkes like correction to forces

   POTIM  = 0.5000    time-step for ionic-motion
   TEIN   =    0.0    initial temperature
   TEBEG  =    0.0;   TEEND  =   0.0 temperature during run
   SMASS  =  -3.00    Nose mass-parameter (am)
   estimated Nose-frequenzy (Omega)   =  0.10E-29 period in steps =****** mass=  -0.180E-26a.u.
   SCALEE = 1.0000    scale energy and forces
   NPACO  =    256;   APACO  = 16.0  distance and # of slots for P.C.
   PSTRESS=    0.0 pullay stress

  Mass of Ions in am
   POMASS =  24.30 16.00 12.01  1.00 14.00
  Ionic Valenz
   ZVAL   =   2.00  6.00  4.00  1.00  5.00
  Atomic Wigner-Seitz radii
   RWIGS  =  -1.00 -1.00 -1.00 -1.00 -1.00
  virtual crystal weights 
   VCA    =   1.00  1.00  1.00  1.00  1.00
   NELECT =     272.0000    total number of electrons
   NUPDOWN=      -1.0000    fix difference up-down

 DOS related values:
   EMIN   =  10.00;   EMAX   =-10.00  energy-range for DOS
   EFERMI =   0.00
   ISMEAR =     0;   SIGMA  =   0.10  broadening in eV -4-tet -1-fermi 0-gaus

 Electronic relaxation 2 (details)
   IALGO  =     38    algorithm
   LDIAG  =      T    sub-space diagonalisation (order eigenvalues)
   LSUBROT=      F    optimize rotation matrix (better conditioning)
   TURBO    =      0    0=normal 1=particle mesh
   IRESTART =      0    0=no restart 2=restart with 2 vectors
   NREBOOT  =      0    no. of reboots
   NMIN     =      0    reboot dimension
   EREF     =   0.00    reference energy to select bands
   IMIX   =      4    mixing-type and parameters
     AMIX     =   0.40;   BMIX     =  1.00
     AMIX_MAG =   1.60;   BMIX_MAG =  1.00
     AMIN     =   0.10
     WC   =   100.;   INIMIX=   1;  MIXPRE=   1;  MAXMIX= -45

 Intra band minimization:
   WEIMIN = 0.0000     energy-eigenvalue tresh-hold
   EBREAK =  0.10E-09  absolut break condition
   DEPER  =   0.30     relativ break condition  

   TIME   =   0.40     timestep for ELM

  volume/ion in A,a.u.               =       9.68        65.34
  Fermi-wavevector in a.u.,A,eV,Ry     =   1.154954  2.182546 18.149060  1.333918
  Thomas-Fermi vector in A             =   2.291586
 
 Write flags
   LWAVE        =      F    write WAVECAR
   LDOWNSAMPLE  =      F    k-point downsampling of WAVECAR
   LCHARG       =      F    write CHGCAR
   LVTOT        =      F    write LOCPOT, total local potential
   LVHAR        =      F    write LOCPOT, Hartree potential only
   LELF         =      F    write electronic localiz. function (ELF)
   LORBIT       =     10    0 simple, 1 ext, 2 COOP (PROOUT), +10 PAW based schemes


 Dipole corrections
   LMONO  =      F    monopole corrections only (constant potential shift)
   LDIPOL =      F    correct potential (dipole corrections)
   IDIPOL =      0    1-x, 2-y, 3-z, 4-all directions 
   EPSILON=  1.0000000 bulk dielectric constant

 Exchange correlation treatment:
   GGA     =    --    GGA type
   LEXCH   =     8    internal setting for exchange type
   VOSKOWN=      0    Vosko Wilk Nusair interpolation
   LHFCALC =     F    Hartree Fock is set to
   LHFONE  =     F    Hartree Fock one center treatment
   AEXX    =    0.0000 exact exchange contribution

 Linear response parameters
   LEPSILON=     F    determine dielectric tensor
   LRPA    =     F    only Hartree local field effects (RPA)
   LNABLA  =     F    use nabla operator in PAW spheres
   LVEL    =     F    velocity operator in full k-point grid
   LINTERFAST=   F  fast interpolation
   KINTER  =     0    interpolate to denser k-point grid
   CSHIFT  =0.1000    complex shift for real part using Kramers Kronig
   OMEGAMAX=  -1.0    maximum frequency
   DEG_THRESHOLD= 0.2000000E-02 threshold for treating states as degnerate
   RTIME   =   -0.100 relaxation time in fs
  (WPLASMAI=    0.000 imaginary part of plasma frequency in eV, 0.658/RTIME)
   DFIELD  = 0.0000000 0.0000000 0.0000000 field for delta impulse in time
 
 Orbital magnetization related:
   ORBITALMAG=     F  switch on orbital magnetization
   LCHIMAG   =     F  perturbation theory with respect to B field
   DQ        =  0.001000  dq finite difference perturbation B field
   LLRAUG    =     F  two centre corrections for induced B field

 PEAD related settings:
   LPEAD      =     T    switch on PEAD
   IPEAD      =     4    finite difference order for dpsi/dk
   LCALCPOL   =     T    calculate macroscopic polarization
   LCALCEPS   =     F    calculate dielectric tensor
   EFIELD_PEAD=    0.0000    0.0000    0.0000
   SKIP_EDOTP =     F
   LRPA       =     F
   SKIP_SCF   =     F


--------------------------------------------------------------------------------------------------------


 Static calculation
 charge density and potential will be updated during run
 spin polarized calculation
 Variant of blocked Davidson
 Davidson routine will perform the subspace rotation
 perform sub-space diagonalisation
    after iterative eigenvector-optimisation
 modified Broyden-mixing scheme, WC =      100.0
 initial mixing is a Kerker type mixing with AMIX =  0.4000 and BMIX =      1.0000
 Hartree-type preconditioning will be used
 using additional bands          104
 reciprocal scheme for non local part
 use partial core corrections
 calculate Harris-corrections to forces 
   (improved forces if not selfconsistent)
 use gradient corrections 
 use of overlap-Matrix (Vanderbilt PP)
 Gauss-broadening in eV      SIGMA  =   0.10


--------------------------------------------------------------------------------------------------------


  energy-cutoff  :      700.00
  volume of cell :      774.64
      direct lattice vectors                 reciprocal lattice vectors
     8.865049590  0.000000000  0.000000000     0.112802527  0.000000000  0.000000000
     0.000000000  7.634390981  0.000000000     0.000000000  0.130986218  0.000000000
     0.000000000  0.000000000 11.445743355     0.000000000  0.000000000  0.087368725

  length of vectors
     8.865049590  7.634390981 11.445743355     0.112802527  0.130986218  0.087368725


 
 k-points in units of 2pi/SCALE and weight: Automatic mesh                          
   0.01410032  0.01637328  0.02184218       0.250
   0.04230095  0.01637328  0.02184218       0.250
   0.01410032  0.04911983  0.02184218       0.250
   0.04230095  0.04911983  0.02184218       0.250
 
 k-points in reciprocal lattice and weights: Automatic mesh                          
   0.12500000  0.12500000  0.25000000       0.250
   0.37500000  0.12500000  0.25000000       0.250
   0.12500000  0.37500000  0.25000000       0.250
   0.37500000  0.37500000  0.25000000       0.250
 
 position of ions in fractional coordinates (direct lattice) 
   0.54557530  0.49968937  0.51222732
   0.45442470  0.50031063  0.01222732
   0.04557529  0.00031066  0.51222732
   0.95442470  0.99968943  0.01222732
   0.57108379  0.64393933  0.66901205
   0.42891624  0.35606067  0.16901204
   0.07108371  0.85606064  0.66901205
   0.92891621  0.14393934  0.16901204
   0.50132000  0.63509888  0.85765969
   0.49868000  0.36490115  0.35765965
   0.00132008  0.86490115  0.85765969
   0.99868000  0.13509887  0.35765965
   0.44506238  0.72627978  0.44550167
   0.55493762  0.27372022  0.94550163
   0.94506238  0.77372025  0.44550167
   0.05493761  0.22627972  0.94550163
   0.24951449  0.91314905  0.44003924
   0.75048551  0.08685097  0.94003924
   0.74951449  0.58685098  0.44003924
   0.25048551  0.41314908  0.94003924
   0.33877950  0.41803326  0.58118134
   0.66122053  0.58196671  0.08118128
   0.83877947  0.08196672  0.58118134
   0.16122050  0.91803332  0.08118128
   0.14505131  0.22926442  0.57696360
   0.85494872  0.77073556  0.07696360
   0.64505128  0.27073559  0.57696360
   0.35494869  0.72926441  0.07696360
   0.54165958  0.56214277  0.76342584
   0.45834042  0.43785723  0.26342586
   0.04165961  0.93785726  0.76342584
   0.95834048  0.06214276  0.26342586
   0.32429376  0.78909247  0.48690532
   0.67570621  0.21090753  0.98690528
   0.82429379  0.71090750  0.48690532
   0.17570624  0.28909241  0.98690528
   0.28187707  0.27113642  0.55625534
   0.71812296  0.72886358  0.05625535
   0.78187704  0.22886357  0.55625534
   0.21812293  0.77113639  0.05625535
   0.55231409  0.41804480  0.76220347
   0.44768591  0.58195517  0.26220343
   0.05231404  0.08195520  0.76220347
   0.94768591  0.91804480  0.26220343
   0.28046077  0.73318887  0.56913471
   0.71953921  0.26681116  0.06913465
   0.78046079  0.76681116  0.56913471
   0.21953923  0.23318879  0.06913465
   0.35374566  0.17229068  0.51286451
   0.64625431  0.82770932  0.01286458
   0.85374569  0.32770932  0.51286451
   0.14625435  0.67229065  0.01286458
   0.08820696  0.40899453  0.67279618
   0.91179308  0.59100544  0.17279625
   0.58820698  0.09100546  0.67279618
   0.41179305  0.90899453  0.17279625
   0.08356627  0.62986906  0.70248281
   0.91643372  0.37013094  0.20248275
   0.58356628  0.87013097  0.70248281
   0.41643372  0.12986906  0.20248275
   0.15575328  0.48307106  0.80254916
   0.84424669  0.51692897  0.30254920
   0.65575331  0.01692895  0.80254916
   0.34424672  0.98307103  0.30254920
   0.92877445  0.39058971  0.84647700
   0.07122556  0.60941023  0.34647702
   0.42877442  0.10941028  0.84647700
   0.57122555  0.89058974  0.34647702
   0.90859542  0.60514406  0.83217424
   0.09140458  0.39485597  0.33217415
   0.40859542  0.89485597  0.83217424
   0.59140458  0.10514404  0.33217415
   0.92180699  0.49034014  0.78608783
   0.07819299  0.50965986  0.28608779
   0.42180702  0.00965987  0.78608783
   0.57819301  0.99034011  0.28608779
   0.07303386  0.50331701  0.73822895
   0.92696618  0.49668299  0.23822893
   0.57303388  0.99668296  0.73822895
   0.42696615  0.00331702  0.23822893
 
 position of ions in cartesian coordinates  (Angst):
   4.83655208  3.81482404  5.86282240
   4.02849751  3.81956694  0.13995077
   0.40402717  0.00237169  5.86282240
   8.46102231  7.63201994  0.13995077
   5.06268612  4.91608460  7.65734020
   3.80236371  2.71830639  1.93446839
   0.63016059  6.53550164  7.65734020
   8.23488827  1.09888923  1.93446839
   4.44422664  4.84859320  9.81655265
   4.42082295  2.78579802  4.09368051
   0.01170261  6.60299351  9.81655265
   8.85334775  1.03139759  4.09368051
   3.94550006  5.54470378  5.09909781
   4.91954953  2.08968720 10.82196901
   8.37802486  5.90688293  5.09909781
   0.48702461  1.72750782 10.82196901
   2.21195829  6.97133688  5.03657623
   6.65309130  0.66305428 10.75944791
   6.64448309  4.48024983  5.03657623
   2.22056650  3.15414162 10.75944791
   3.00329704  3.19142937  6.65205248
   5.86175280  4.44296138  0.92918004
   7.43582159  0.62576600  6.65205248
   1.42922775  7.00862533  0.92918004
   1.28588706  1.75029425  6.60377727
   7.57916278  5.88409661  0.88090564
   5.71841161  2.06690135  6.60377727
   3.14663773  5.56748963  0.88090564
   4.80183901  4.29161771  8.73797621
   4.06321058  3.34277327  3.01510477
   0.36931455  7.15996899  8.73797621
   8.49573587  0.47442216  3.01510477
   2.87488028  6.02424044  5.57299335
   5.99016906  1.61015054 11.29586455
   7.30740533  5.42734579  5.57299335
   1.55764451  2.20704448 11.29586455
   2.49885418  2.06996143  6.36675590
   6.36619566  5.56442955  0.64388434
   6.93137872  1.74723394  6.36675590
   1.93367062  5.88715669  0.64388434
   4.89629177  3.19151742  8.72398534
   3.96875782  4.44287333  3.00111319
   0.46376652  0.62567801  8.72398534
   8.40128262  7.00871291  3.00111319
   2.48629861  5.59745049  6.51416977
   6.37875074  2.03694073  0.79129744
   6.91882364  5.85413622  6.51416977
   1.94622619  1.78025441  0.79129744
   3.13597281  1.31533444  5.87011550
   5.72907654  6.31905654  0.14724472
   7.56849785  2.50186105  5.87011550
   1.29655210  5.13252969  0.14724472
   0.78195904  3.12242416  7.70065245
   8.08309086  4.51196659  1.97778149
   5.21448402  0.69477124  7.70065245
   3.65056581  6.93961965  1.97778149
   0.74081913  4.80866669  8.04043794
   8.12423033  2.82572429  2.31756556
   5.17334405  6.64292001  8.04043794
   3.69170554  0.99147120  2.31756556
   1.38076054  3.68795332  9.18577167
   7.48428880  3.94643790  3.46290046
   5.81328558  0.12924226  9.18577167
   3.05176426  7.50514858  3.46290046
   8.23363157  2.98191455  9.68855850
   0.63141814  4.65247596  3.96568705
   3.80110653  0.83528082  9.68855850
   5.06394282  6.79911028  3.96568705
   8.05474341  4.61990635  9.52485274
   0.81030612  3.01448486  3.80198012
   3.62221862  6.83168036  9.52485274
   5.24283097  0.80271075  3.80198012
   8.17186470  3.74344831  8.99735953
   0.69318478  3.89094267  3.27448738
   3.73934014  0.07374724  8.99735953
   5.12570969  7.56064357  3.27448738
   0.64744881  3.84251882  8.44957908
   8.21760115  3.79187216  2.72670718
   5.07997373  7.60906742  8.44957908
   3.78507610  0.02532343  2.72670718
 


--------------------------------------------------------------------------------------------------------


 k-point  1 :   0.1250 0.1250 0.2500  plane waves:   32576
 k-point  2 :   0.3750 0.1250 0.2500  plane waves:   32585
 k-point  3 :   0.1250 0.3750 0.2500  plane waves:   32557
 k-point  4 :   0.3750 0.3750 0.2500  plane waves:   32558

 maximum and minimum number of plane-waves per node :     32585    32557

 maximum number of plane-waves:     32585
 maximum index in each direction: 
   IXMAX=   18   IYMAX=   16   IZMAX=   24
   IXMIN=  -19   IYMIN=  -16   IZMIN=  -24


 serial   3D FFT for wavefunctions
 parallel 3D FFT for charge:
    minimum data exchange during FFTs selected (reduces bandwidth)


 total amount of memory used by VASP MPI-rank0   213757. kBytes
=======================================================================

   base      :      30000. kBytes
   nonl-proj :     109509. kBytes
   fftplans  :       3399. kBytes
   grid      :      48325. kBytes
   one-center:       1297. kBytes
   wavefun   :      21227. kBytes
 
     INWAV:  cpu time    0.0000: real time    0.0000
 Broyden mixing: mesh for mixing (old mesh)
   NGX = 39   NGY = 33   NGZ = 49
  (NGX  = 98   NGY  = 84   NGZ  =126)
  gives a total of  63063 points

 initial charge density was supplied:
 charge density of overlapping atoms calculated
 number of electron     272.0000000 magnetization      80.0000000
 keeping initial charge density in first step


--------------------------------------------------------------------------------------------------------


 Maximum index for augmentation-charges          783 (set IRDMAX)


--------------------------------------------------------------------------------------------------------


 First call to EWALD:  gamma=   0.193
 Maximum number of real-space cells 3x 3x 2
 Maximum number of reciprocal cells 3x 2x 3

    FEWALD:  cpu time    0.0029: real time    0.0029


--------------------------------------- Iteration      1(   1)  ---------------------------------------


    POTLOK:  cpu time    0.1154: real time    0.1333
    SETDIJ:  cpu time    0.0125: real time    0.0163
     EDDAV:  cpu time   10.6715: real time   10.7389
       DOS:  cpu time    0.0033: real time    0.0039
    --------------------------------------------
      LOOP:  cpu time   10.8027: real time   10.8924

 eigenvalue-minimisations  :  3840
 total energy-change (2. order) : 0.1611306E+04  (-0.1593901E+05)
 number of electron     272.0000000 magnetization      80.0000000
 augmentation part      272.0000000 magnetization      80.0000000

 Free energy of the ion-electron system (eV)
  ---------------------------------------------------
  alpha Z        PSCENC =       400.41018837
  Ewald energy   TEWEN  =     -7821.34091391
  -Hartree energ DENC   =     -5849.56813354
  -exchange      EXHF   =         0.00000000
  -V(xc)+E(xc)   XCENC  =       896.32360303
  PAW double counting   =      7526.10675047    -7387.88919322
  entropy T*S    EENTRO =        -0.04812524
  eigenvalues    EBANDS =      -903.50359154
  atomic energy  EATOM  =     14750.81523911
  Solvation  Ediel_sol  =         0.00000000
  ---------------------------------------------------
  free energy    TOTEN  =      1611.30582352 eV

  energy without entropy =     1611.35394876  energy(sigma->0) =     1611.32988614


--------------------------------------------------------------------------------------------------------




--------------------------------------- Iteration      1(   2)  ---------------------------------------


     EDDAV:  cpu time   13.3872: real time   13.3986
       DOS:  cpu time    0.0013: real time    0.0013
    --------------------------------------------
      LOOP:  cpu time   13.3885: real time   13.4000

 eigenvalue-minimisations  :  4992
 total energy-change (2. order) :-0.1936745E+04  (-0.1848019E+04)
 number of electron     272.0000000 magnetization      80.0000000
 augmentation part      272.0000000 magnetization      80.0000000

 Free energy of the ion-electron system (eV)
  ---------------------------------------------------
  alpha Z        PSCENC =       400.41018837
  Ewald energy   TEWEN  =     -7821.34091391
  -Hartree energ DENC   =     -5849.56813354
  -exchange      EXHF   =         0.00000000
  -V(xc)+E(xc)   XCENC  =       896.32360303
  PAW double counting   =      7526.10675047    -7387.88919322
  entropy T*S    EENTRO =        -0.00000000
  eigenvalues    EBANDS =     -2840.29635546
  atomic energy  EATOM  =     14750.81523911
  Solvation  Ediel_sol  =         0.00000000
  ---------------------------------------------------
  free energy    TOTEN  =      -325.43881516 eV

  energy without entropy =     -325.43881516  energy(sigma->0) =     -325.43881516


--------------------------------------------------------------------------------------------------------




--------------------------------------- Iteration      1(   3)  ---------------------------------------


     EDDAV:  cpu time   13.1399: real time   13.1516
       DOS:  cpu time    0.0010: real time    0.0010
    CHARGE:  cpu time    0.3956: real time    0.3956
    MIXING:  cpu time    0.0014: real time    0.0022
    --------------------------------------------
      LOOP:  cpu time   13.5379: real time   13.5504

 eigenvalue-minimisations  :  4800
 total energy-change (2. order) :-0.1192870E+03  (-0.1184642E+03)
 number of electron     271.9999945 magnetization      50.3593685
 augmentation part       22.0865940 magnetization      50.3748631

 Broyden mixing:
  rms(total) = 0.64302E+01    rms(broyden)= 0.64301E+01
  rms(prec ) = 0.70017E+01
  weight for this iteration     100.00

 Free energy of the ion-electron system (eV)
  ---------------------------------------------------
  alpha Z        PSCENC =       400.41018837
  Ewald energy   TEWEN  =     -7821.34091391
  -Hartree energ DENC   =     -5849.56813354
  -exchange      EXHF   =         0.00000000
  -V(xc)+E(xc)   XCENC  =       896.32360303
  PAW double counting   =      7526.10675047    -7387.88919322
  entropy T*S    EENTRO =        -0.00000000
  eigenvalues    EBANDS =     -2959.58336439
  atomic energy  EATOM  =     14750.81523911
  Solvation  Ediel_sol  =         0.00000000
  ---------------------------------------------------
  free energy    TOTEN  =      -444.72582409 eV

  energy without entropy =     -444.72582409  energy(sigma->0) =     -444.72582409


--------------------------------------------------------------------------------------------------------




--------------------------------------- Iteration      1(   4)  ---------------------------------------


    POTLOK:  cpu time    0.0913: real time    0.1022
    SETDIJ:  cpu time    0.0147: real time    0.0147
     EDDAV:  cpu time   13.4659: real time   13.4663
       DOS:  cpu time    0.0010: real time    0.0010
    CHARGE:  cpu time    0.3977: real time    0.3977
    MIXING:  cpu time    0.0012: real time    0.0031
    --------------------------------------------
      LOOP:  cpu time   13.9718: real time   13.9850

 eigenvalue-minimisations  :  4944
 total energy-change (2. order) : 0.1619632E+03  (-0.3811532E+02)
 number of electron     271.9999952 magnetization      30.7538184
 augmentation part       20.0573378 magnetization      29.1790105

 Broyden mixing:
  rms(total) = 0.26854E+01    rms(broyden)= 0.26853E+01
  rms(prec ) = 0.29526E+01
  weight for this iteration     100.00

 eigenvalues of (default mixing * dielectric matrix)
  average eigenvalue GAMMA=   0.9213
  0.9213

 Free energy of the ion-electron system (eV)
  ---------------------------------------------------
  alpha Z        PSCENC =       400.41018837
  Ewald energy   TEWEN  =     -7821.34091391
  -Hartree energ DENC   =     -6345.02543624
  -exchange      EXHF   =         0.00000000
  -V(xc)+E(xc)   XCENC  =      1032.34750929
  PAW double counting   =      8978.62488188    -8849.47199835
  entropy T*S    EENTRO =        -0.00000000
  eigenvalues    EBANDS =     -2429.12205973
  atomic energy  EATOM  =     14750.81523911
  Solvation  Ediel_sol  =         0.00000000
  ---------------------------------------------------
  free energy    TOTEN  =      -282.76258958 eV

  energy without entropy =     -282.76258958  energy(sigma->0) =     -282.76258958


--------------------------------------------------------------------------------------------------------




--------------------------------------- Iteration      1(   5)  ---------------------------------------


    POTLOK:  cpu time    0.0889: real time    0.0999
    SETDIJ:  cpu time    0.0114: real time    0.0114
     EDDAV:  cpu time   12.7142: real time   12.7145
       DOS:  cpu time    0.0017: real time    0.0017
    CHARGE:  cpu time    0.3964: real time    0.3964
    MIXING:  cpu time    0.0027: real time    0.0027
    --------------------------------------------
      LOOP:  cpu time   13.2154: real time   13.2267

 eigenvalue-minimisations  :  4656
 total energy-change (2. order) :-0.1076508E+03  (-0.7338941E+01)
 number of electron     271.9999956 magnetization      15.9516999
 augmentation part       19.3307018 magnetization      14.6285720

 Broyden mixing:
  rms(total) = 0.15754E+01    rms(broyden)= 0.15754E+01
  rms(prec ) = 0.16977E+01
  weight for this iteration     100.00

 eigenvalues of (default mixing * dielectric matrix)
  average eigenvalue GAMMA=   1.0138
  1.1419  0.8858

 Free energy of the ion-electron system (eV)
  ---------------------------------------------------
  alpha Z        PSCENC =       400.41018837
  Ewald energy   TEWEN  =     -7821.34091391
  -Hartree energ DENC   =     -6546.56743811
  -exchange      EXHF   =         0.00000000
  -V(xc)+E(xc)   XCENC  =       970.07739568
  PAW double counting   =      9622.62647157    -9495.04502648
  entropy T*S    EENTRO =        -0.00000000
  eigenvalues    EBANDS =     -2271.38933611
  atomic energy  EATOM  =     14750.81523911
  Solvation  Ediel_sol  =         0.00000000
  ---------------------------------------------------
  free energy    TOTEN  =      -390.41341986 eV

  energy without entropy =     -390.41341986  energy(sigma->0) =     -390.41341986


--------------------------------------------------------------------------------------------------------




--------------------------------------- Iteration      1(   6)  ---------------------------------------


    POTLOK:  cpu time    0.0933: real time    0.1046
    SETDIJ:  cpu time    0.0170: real time    0.0170
     EDDAV:  cpu time   12.5891: real time   12.5896
       DOS:  cpu time    0.0007: real time    0.0007
    CHARGE:  cpu time    0.3967: real time    0.3966
    MIXING:  cpu time    0.0012: real time    0.0012
    --------------------------------------------
      LOOP:  cpu time   13.0979: real time   13.1097

 eigenvalue-minimisations  :  4608
 total energy-change (2. order) :-0.4405565E+02  (-0.2844872E+01)
 number of electron     271.9999957 magnetization       5.2480287
 augmentation part       19.3176785 magnetization       4.3528714

 Broyden mixing:
  rms(total) = 0.84269E+00    rms(broyden)= 0.84268E+00
  rms(prec ) = 0.89238E+00
  weight for this iteration     100.00

 eigenvalues of (default mixing * dielectric matrix)
  average eigenvalue GAMMA=   1.2802
  1.9611  1.1671  0.7123

 Free energy of the ion-electron system (eV)
  ---------------------------------------------------
  alpha Z        PSCENC =       400.41018837
  Ewald energy   TEWEN  =     -7821.34091391
  -Hartree energ DENC   =     -6600.38752017
  -exchange      EXHF   =         0.00000000
  -V(xc)+E(xc)   XCENC  =       948.96312713
  PAW double counting   =      9902.28899439    -9774.42329087
  entropy T*S    EENTRO =        -0.00000000
  eigenvalues    EBANDS =     -2240.79489622
  atomic energy  EATOM  =     14750.81523911
  Solvation  Ediel_sol  =         0.00000000
  ---------------------------------------------------
  free energy    TOTEN  =      -434.46907217 eV

  energy without entropy =     -434.46907217  energy(sigma->0) =     -434.46907217


--------------------------------------------------------------------------------------------------------




--------------------------------------- Iteration      1(   7)  ---------------------------------------


    POTLOK:  cpu time    0.0887: real time    0.1001
    SETDIJ:  cpu time    0.0111: real time    0.0111
     EDDAV:  cpu time   13.1822: real time   13.1825
       DOS:  cpu time    0.0030: real time    0.0030
    CHARGE:  cpu time    0.4012: real time    0.4012
    MIXING:  cpu time    0.0074: real time    0.0074
    --------------------------------------------
      LOOP:  cpu time   13.6936: real time   13.7053

 eigenvalue-minimisations  :  4848
 total energy-change (2. order) :-0.4143477E+02  (-0.4313576E+01)
 number of electron     271.9999957 magnetization       3.4498361
 augmentation part       19.1105733 magnetization       3.1287446

 Broyden mixing:
  rms(total) = 0.37842E+00    rms(broyden)= 0.37838E+00
  rms(prec ) = 0.42141E+00
  weight for this iteration     100.00

 eigenvalues of (default mixing * dielectric matrix)
  average eigenvalue GAMMA=   1.2576
  1.8970  1.6526  0.7404  0.7404

 Free energy of the ion-electron system (eV)
  ---------------------------------------------------
  alpha Z        PSCENC =       400.41018837
  Ewald energy   TEWEN  =     -7821.34091391
  -Hartree energ DENC   =     -6608.67181137
  -exchange      EXHF   =         0.00000000
  -V(xc)+E(xc)   XCENC  =       930.00514790
  PAW double counting   =     10041.49581855    -9913.35871558
  entropy T*S    EENTRO =        -0.00000000
  eigenvalues    EBANDS =     -2255.25879046
  atomic energy  EATOM  =     14750.81523911
  Solvation  Ediel_sol  =         0.00000000
  ---------------------------------------------------
  free energy    TOTEN  =      -475.90383739 eV

  energy without entropy =     -475.90383739  energy(sigma->0) =     -475.90383739


--------------------------------------------------------------------------------------------------------




--------------------------------------- Iteration      1(   8)  ---------------------------------------


    POTLOK:  cpu time    0.0872: real time    0.0980
    SETDIJ:  cpu time    0.0114: real time    0.0114
     EDDAV:  cpu time   12.7624: real time   12.7628
       DOS:  cpu time    0.0023: real time    0.0023
    CHARGE:  cpu time    0.3988: real time    0.3988
    MIXING:  cpu time    0.0032: real time    0.0032
    --------------------------------------------
      LOOP:  cpu time   13.2652: real time   13.2765

 eigenvalue-minimisations  :  4656
 total energy-change (2. order) :-0.5772647E+01  (-0.6844639E+00)
 number of electron     271.9999957 magnetization       1.4711899
 augmentation part       19.1035058 magnetization       1.3762917

 Broyden mixing:
  rms(total) = 0.19830E+00    rms(broyden)= 0.19828E+00
  rms(prec ) = 0.22155E+00
  weight for this iteration     100.00

 eigenvalues of (default mixing * dielectric matrix)
  average eigenvalue GAMMA=   1.2916
  1.9772  1.9772  0.9576  0.8776  0.6681

 Free energy of the ion-electron system (eV)
  ---------------------------------------------------
  alpha Z        PSCENC =       400.41018837
  Ewald energy   TEWEN  =     -7821.34091391
  -Hartree energ DENC   =     -6571.09939447
  -exchange      EXHF   =         0.00000000
  -V(xc)+E(xc)   XCENC  =       925.64198030
  PAW double counting   =      9987.21314507    -9858.64685216
  entropy T*S    EENTRO =        -0.00000000
  eigenvalues    EBANDS =     -2294.66987661
  atomic energy  EATOM  =     14750.81523911
  Solvation  Ediel_sol  =         0.00000000
  ---------------------------------------------------
  free energy    TOTEN  =      -481.67648429 eV

  energy without entropy =     -481.67648429  energy(sigma->0) =     -481.67648429


--------------------------------------------------------------------------------------------------------




--------------------------------------- Iteration      1(   9)  ---------------------------------------


    POTLOK:  cpu time    0.0908: real time    0.1027
    SETDIJ:  cpu time    0.0143: real time    0.0143
     EDDAV:  cpu time   12.4490: real time   12.4495
       DOS:  cpu time    0.0047: real time    0.0047
    CHARGE:  cpu time    0.3935: real time    0.3935
    MIXING:  cpu time    0.0013: real time    0.0013
    --------------------------------------------
      LOOP:  cpu time   12.9538: real time   12.9661

 eigenvalue-minimisations  :  4560
 total energy-change (2. order) :-0.8439175E+00  (-0.1445033E+00)
 number of electron     271.9999956 magnetization       0.4074230
 augmentation part       19.1538247 magnetization       0.3892284

 Broyden mixing:
  rms(total) = 0.90651E-01    rms(broyden)= 0.90638E-01
  rms(prec ) = 0.10092E+00
  weight for this iteration     100.00

 eigenvalues of (default mixing * dielectric matrix)
  average eigenvalue GAMMA=   1.2673
  2.4129  1.4665  1.4665  0.7993  0.7993  0.6592

 Free energy of the ion-electron system (eV)
  ---------------------------------------------------
  alpha Z        PSCENC =       400.41018837
  Ewald energy   TEWEN  =     -7821.34091391
  -Hartree energ DENC   =     -6545.25942056
  -exchange      EXHF   =         0.00000000
  -V(xc)+E(xc)   XCENC  =       923.77074127
  PAW double counting   =      9964.17846120    -9835.33819080
  entropy T*S    EENTRO =        -0.00000000
  eigenvalues    EBANDS =     -2319.75650643
  atomic energy  EATOM  =     14750.81523911
  Solvation  Ediel_sol  =         0.00000000
  ---------------------------------------------------
  free energy    TOTEN  =      -482.52040175 eV

  energy without entropy =     -482.52040175  energy(sigma->0) =     -482.52040175


--------------------------------------------------------------------------------------------------------




--------------------------------------- Iteration      1(  10)  ---------------------------------------


    POTLOK:  cpu time    0.0893: real time    0.1001
    SETDIJ:  cpu time    0.0112: real time    0.0112
     EDDAV:  cpu time   12.7140: real time   12.7148
       DOS:  cpu time    0.0007: real time    0.0007
    CHARGE:  cpu time    0.3973: real time    0.3973
    MIXING:  cpu time    0.0043: real time    0.0043
    --------------------------------------------
      LOOP:  cpu time   13.2168: real time   13.2283

 eigenvalue-minimisations  :  4608
 total energy-change (2. order) :-0.9549425E-03  (-0.9771462E-02)
 number of electron     271.9999956 magnetization       0.1174387
 augmentation part       19.1395923 magnetization       0.1049630

 Broyden mixing:
  rms(total) = 0.45926E-01    rms(broyden)= 0.45925E-01
  rms(prec ) = 0.54469E-01
  weight for this iteration     100.00

 eigenvalues of (default mixing * dielectric matrix)
  average eigenvalue GAMMA=   1.2795
  2.5153  1.6750  1.6750  0.8906  0.7633  0.7633  0.6740

 Free energy of the ion-electron system (eV)
  ---------------------------------------------------
  alpha Z        PSCENC =       400.41018837
  Ewald energy   TEWEN  =     -7821.34091391
  -Hartree energ DENC   =     -6549.04057700
  -exchange      EXHF   =         0.00000000
  -V(xc)+E(xc)   XCENC  =       924.01219817
  PAW double counting   =      9988.42232313    -9859.68782249
  entropy T*S    EENTRO =        -0.00000000
  eigenvalues    EBANDS =     -2316.11199207
  atomic energy  EATOM  =     14750.81523911
  Solvation  Ediel_sol  =         0.00000000
  ---------------------------------------------------
  free energy    TOTEN  =      -482.52135669 eV

  energy without entropy =     -482.52135669  energy(sigma->0) =     -482.52135669


--------------------------------------------------------------------------------------------------------




--------------------------------------- Iteration      1(  11)  ---------------------------------------


    POTLOK:  cpu time    0.0885: real time    0.0996
    SETDIJ:  cpu time    0.0137: real time    0.0137
     EDDAV:  cpu time   12.7385: real time   12.7390
       DOS:  cpu time    0.0007: real time    0.0007
    CHARGE:  cpu time    0.3950: real time    0.3950
    MIXING:  cpu time    0.0015: real time    0.0015
    --------------------------------------------
      LOOP:  cpu time   13.2379: real time   13.2495

 eigenvalue-minimisations  :  4656
 total energy-change (2. order) : 0.8907582E-02  (-0.1670072E-02)
 number of electron     271.9999956 magnetization       0.0166472
 augmentation part       19.1389943 magnetization       0.0110411

 Broyden mixing:
  rms(total) = 0.18108E-01    rms(broyden)= 0.18107E-01
  rms(prec ) = 0.23031E-01
  weight for this iteration     100.00

 eigenvalues of (default mixing * dielectric matrix)
  average eigenvalue GAMMA=   1.2985
  2.6245  1.7775  1.7775  1.1336  0.8606  0.8606  0.7252  0.6282

 Free energy of the ion-electron system (eV)
  ---------------------------------------------------
  alpha Z        PSCENC =       400.41018837
  Ewald energy   TEWEN  =     -7821.34091391
  -Hartree energ DENC   =     -6545.52335786
  -exchange      EXHF   =         0.00000000
  -V(xc)+E(xc)   XCENC  =       923.76429075
  PAW double counting   =      9987.39681037    -9858.68255902
  entropy T*S    EENTRO =        -0.00000000
  eigenvalues    EBANDS =     -2319.35214692
  atomic energy  EATOM  =     14750.81523911
  Solvation  Ediel_sol  =         0.00000000
  ---------------------------------------------------
  free energy    TOTEN  =      -482.51244911 eV

  energy without entropy =     -482.51244911  energy(sigma->0) =     -482.51244911


--------------------------------------------------------------------------------------------------------




--------------------------------------- Iteration      1(  12)  ---------------------------------------


    POTLOK:  cpu time    0.0853: real time    0.0971
    SETDIJ:  cpu time    0.0111: real time    0.0111
     EDDAV:  cpu time   12.5894: real time   12.5896
       DOS:  cpu time    0.0029: real time    0.0029
    CHARGE:  cpu time    0.4070: real time    0.4070
    MIXING:  cpu time    0.0039: real time    0.0039
    --------------------------------------------
      LOOP:  cpu time   13.0995: real time   13.1117

 eigenvalue-minimisations  :  4608
 total energy-change (2. order) : 0.1396649E-02  (-0.4972163E-03)
 number of electron     271.9999956 magnetization      -0.0013678
 augmentation part       19.1429045 magnetization      -0.0015873

 Broyden mixing:
  rms(total) = 0.57460E-02    rms(broyden)= 0.57454E-02
  rms(prec ) = 0.69565E-02
  weight for this iteration     100.00

 eigenvalues of (default mixing * dielectric matrix)
  average eigenvalue GAMMA=   1.2749
  2.6777  1.8433  1.8433  1.2081  0.9614  0.8088  0.8088  0.6367  0.6859

 Free energy of the ion-electron system (eV)
  ---------------------------------------------------
  alpha Z        PSCENC =       400.41018837
  Ewald energy   TEWEN  =     -7821.34091391
  -Hartree energ DENC   =     -6541.98580969
  -exchange      EXHF   =         0.00000000
  -V(xc)+E(xc)   XCENC  =       923.53752253
  PAW double counting   =      9983.41133746    -9854.68969418
  entropy T*S    EENTRO =        -0.00000000
  eigenvalues    EBANDS =     -2322.66892215
  atomic energy  EATOM  =     14750.81523911
  Solvation  Ediel_sol  =         0.00000000
  ---------------------------------------------------
  free energy    TOTEN  =      -482.51105246 eV

  energy without entropy =     -482.51105246  energy(sigma->0) =     -482.51105246


--------------------------------------------------------------------------------------------------------




--------------------------------------- Iteration      1(  13)  ---------------------------------------


    POTLOK:  cpu time    0.0950: real time    0.1060
    SETDIJ:  cpu time    0.0162: real time    0.0162
     EDDAV:  cpu time   12.6234: real time   12.6239
       DOS:  cpu time    0.0017: real time    0.0017
    CHARGE:  cpu time    0.3937: real time    0.3937
    MIXING:  cpu time    0.0039: real time    0.0039
    --------------------------------------------
      LOOP:  cpu time   13.1338: real time   13.1453

 eigenvalue-minimisations  :  4608
 total energy-change (2. order) : 0.1393632E-03  (-0.1042754E-03)
 number of electron     271.9999956 magnetization      -0.0035198
 augmentation part       19.1431547 magnetization      -0.0035729

 Broyden mixing:
  rms(total) = 0.31428E-02    rms(broyden)= 0.31427E-02
  rms(prec ) = 0.38671E-02
  weight for this iteration     100.00

 eigenvalues of (default mixing * dielectric matrix)
  average eigenvalue GAMMA=   1.2770
  2.7049  1.9412  1.9412  1.3182  1.1162  0.8402  0.8402  0.7736  0.6471  0.6471

 Free energy of the ion-electron system (eV)
  ---------------------------------------------------
  alpha Z        PSCENC =       400.41018837
  Ewald energy   TEWEN  =     -7821.34091391
  -Hartree energ DENC   =     -6541.76576722
  -exchange      EXHF   =         0.00000000
  -V(xc)+E(xc)   XCENC  =       923.53025990
  PAW double counting   =      9984.04918696    -9855.33271451
  entropy T*S    EENTRO =        -0.00000000
  eigenvalues    EBANDS =     -2322.87639180
  atomic energy  EATOM  =     14750.81523911
  Solvation  Ediel_sol  =         0.00000000
  ---------------------------------------------------
  free energy    TOTEN  =      -482.51091310 eV

  energy without entropy =     -482.51091310  energy(sigma->0) =     -482.51091310


--------------------------------------------------------------------------------------------------------




--------------------------------------- Iteration      1(  14)  ---------------------------------------


    POTLOK:  cpu time    0.0875: real time    0.0983
    SETDIJ:  cpu time    0.0162: real time    0.0162
     EDDAV:  cpu time   12.5943: real time   12.5951
       DOS:  cpu time    0.0027: real time    0.0027
    CHARGE:  cpu time    0.3975: real time    0.3975
    MIXING:  cpu time    0.0021: real time    0.0250
    --------------------------------------------
      LOOP:  cpu time   13.1003: real time   13.1348

 eigenvalue-minimisations  :  4608
 total energy-change (2. order) : 0.1079274E-03  (-0.3531805E-04)
 number of electron     271.9999956 magnetization      -0.0017945
 augmentation part       19.1431765 magnetization      -0.0018083

 Broyden mixing:
  rms(total) = 0.13867E-02    rms(broyden)= 0.13866E-02
  rms(prec ) = 0.17310E-02
  weight for this iteration     100.00

 eigenvalues of (default mixing * dielectric matrix)
  average eigenvalue GAMMA=   1.3173
  2.7438  2.2248  1.8565  1.8565  1.1359  1.0043  0.8216  0.8216  0.7191  0.6908
  0.6156

 Free energy of the ion-electron system (eV)
  ---------------------------------------------------
  alpha Z        PSCENC =       400.41018837
  Ewald energy   TEWEN  =     -7821.34091391
  -Hartree energ DENC   =     -6541.65918404
  -exchange      EXHF   =         0.00000000
  -V(xc)+E(xc)   XCENC  =       923.52787293
  PAW double counting   =      9984.49741939    -9855.78578197
  entropy T*S    EENTRO =        -0.00000000
  eigenvalues    EBANDS =     -2322.97564506
  atomic energy  EATOM  =     14750.81523911
  Solvation  Ediel_sol  =         0.00000000
  ---------------------------------------------------
  free energy    TOTEN  =      -482.51080517 eV

  energy without entropy =     -482.51080517  energy(sigma->0) =     -482.51080517


--------------------------------------------------------------------------------------------------------




--------------------------------------- Iteration      1(  15)  ---------------------------------------


    POTLOK:  cpu time    0.0882: real time    0.0999
    SETDIJ:  cpu time    0.0111: real time    0.0111
     EDDAV:  cpu time   12.6786: real time   12.6791
       DOS:  cpu time    0.0024: real time    0.0024
    CHARGE:  cpu time    0.3981: real time    0.3981
    MIXING:  cpu time    0.0020: real time    0.0020
    --------------------------------------------
      LOOP:  cpu time   13.1804: real time   13.1926

 eigenvalue-minimisations  :  4608
 total energy-change (2. order) : 0.4375187E-04  (-0.9640201E-05)
 number of electron     271.9999956 magnetization      -0.0012397
 augmentation part       19.1433106 magnetization      -0.0012004

 Broyden mixing:
  rms(total) = 0.49981E-03    rms(broyden)= 0.49979E-03
  rms(prec ) = 0.61393E-03
  weight for this iteration     100.00

 eigenvalues of (default mixing * dielectric matrix)
  average eigenvalue GAMMA=   1.3076
  2.8300  2.5641  1.8346  1.8346  1.1571  0.9538  0.8417  0.8417  0.8318  0.7274
  0.6608  0.6138

 Free energy of the ion-electron system (eV)
  ---------------------------------------------------
  alpha Z        PSCENC =       400.41018837
  Ewald energy   TEWEN  =     -7821.34091391
  -Hartree energ DENC   =     -6541.51437003
  -exchange      EXHF   =         0.00000000
  -V(xc)+E(xc)   XCENC  =       923.52160440
  PAW double counting   =      9984.61667037    -9855.90692208
  entropy T*S    EENTRO =        -0.00000000
  eigenvalues    EBANDS =     -2323.11225764
  atomic energy  EATOM  =     14750.81523911
  Solvation  Ediel_sol  =         0.00000000
  ---------------------------------------------------
  free energy    TOTEN  =      -482.51076142 eV

  energy without entropy =     -482.51076142  energy(sigma->0) =     -482.51076142


--------------------------------------------------------------------------------------------------------




--------------------------------------- Iteration      1(  16)  ---------------------------------------


    POTLOK:  cpu time    0.0906: real time    0.1017
    SETDIJ:  cpu time    0.0134: real time    0.0134
     EDDAV:  cpu time   12.5866: real time   12.5869
       DOS:  cpu time    0.0023: real time    0.0023
    CHARGE:  cpu time    0.3922: real time    0.3922
    MIXING:  cpu time    0.0020: real time    0.0020
    --------------------------------------------
      LOOP:  cpu time   13.0870: real time   13.0984

 eigenvalue-minimisations  :  4608
 total energy-change (2. order) : 0.8736664E-05  (-0.1970481E-05)
 number of electron     271.9999956 magnetization      -0.0006531
 augmentation part       19.1433605 magnetization      -0.0006450

 Broyden mixing:
  rms(total) = 0.28103E-03    rms(broyden)= 0.28101E-03
  rms(prec ) = 0.34219E-03
  weight for this iteration     100.00

 eigenvalues of (default mixing * dielectric matrix)
  average eigenvalue GAMMA=   1.2946
  2.8595  2.5720  1.8274  1.8274  1.2787  1.0099  1.0099  0.8550  0.8550  0.7795
  0.6942  0.6513  0.6097

 Free energy of the ion-electron system (eV)
  ---------------------------------------------------
  alpha Z        PSCENC =       400.41018837
  Ewald energy   TEWEN  =     -7821.34091391
  -Hartree energ DENC   =     -6541.48306303
  -exchange      EXHF   =         0.00000000
  -V(xc)+E(xc)   XCENC  =       923.52036605
  PAW double counting   =      9984.63881102    -9855.92902944
  entropy T*S    EENTRO =        -0.00000000
  eigenvalues    EBANDS =     -2323.14235086
  atomic energy  EATOM  =     14750.81523911
  Solvation  Ediel_sol  =         0.00000000
  ---------------------------------------------------
  free energy    TOTEN  =      -482.51075268 eV

  energy without entropy =     -482.51075268  energy(sigma->0) =     -482.51075268


--------------------------------------------------------------------------------------------------------




--------------------------------------- Iteration      1(  17)  ---------------------------------------


    POTLOK:  cpu time    0.0870: real time    0.0973
    SETDIJ:  cpu time    0.0111: real time    0.0111
     EDDAV:  cpu time   12.6389: real time   12.6390
       DOS:  cpu time    0.0017: real time    0.0017
    CHARGE:  cpu time    0.3978: real time    0.3978
    MIXING:  cpu time    0.0024: real time    0.0024
    --------------------------------------------
      LOOP:  cpu time   13.1388: real time   13.1492

 eigenvalue-minimisations  :  4608
 total energy-change (2. order) : 0.1311739E-05  (-0.4322529E-06)
 number of electron     271.9999956 magnetization      -0.0000542
 augmentation part       19.1433372 magnetization      -0.0000500

 Broyden mixing:
  rms(total) = 0.15004E-03    rms(broyden)= 0.15004E-03
  rms(prec ) = 0.18345E-03
  weight for this iteration     100.00

 eigenvalues of (default mixing * dielectric matrix)
  average eigenvalue GAMMA=   1.3288
  2.9488  2.6215  1.9476  1.8355  1.8355  1.1885  0.9440  0.9440  0.8293  0.8293
  0.7527  0.6871  0.6320  0.6072

 Free energy of the ion-electron system (eV)
  ---------------------------------------------------
  alpha Z        PSCENC =       400.41018837
  Ewald energy   TEWEN  =     -7821.34091391
  -Hartree energ DENC   =     -6541.48369485
  -exchange      EXHF   =         0.00000000
  -V(xc)+E(xc)   XCENC  =       923.52067428
  PAW double counting   =      9984.66705907    -9855.95732723
  entropy T*S    EENTRO =        -0.00000000
  eigenvalues    EBANDS =     -2323.14197622
  atomic energy  EATOM  =     14750.81523911
  Solvation  Ediel_sol  =         0.00000000
  ---------------------------------------------------
  free energy    TOTEN  =      -482.51075137 eV

  energy without entropy =     -482.51075137  energy(sigma->0) =     -482.51075137


--------------------------------------------------------------------------------------------------------




--------------------------------------- Iteration      1(  18)  ---------------------------------------


    POTLOK:  cpu time    0.0981: real time    0.1089
    SETDIJ:  cpu time    0.0133: real time    0.0133
     EDDAV:  cpu time   12.9630: real time   12.9632
       DOS:  cpu time    0.0017: real time    0.0017
    CHARGE:  cpu time    0.3950: real time    0.3950
    MIXING:  cpu time    0.0052: real time    0.0052
    --------------------------------------------
      LOOP:  cpu time   13.4762: real time   13.4873

 eigenvalue-minimisations  :  4752
 total energy-change (2. order) : 0.5167949E-06  (-0.1084895E-06)
 number of electron     271.9999956 magnetization       0.0000291
 augmentation part       19.1433534 magnetization       0.0000269

 Broyden mixing:
  rms(total) = 0.58594E-04    rms(broyden)= 0.58592E-04
  rms(prec ) = 0.71163E-04
  weight for this iteration     100.00

 eigenvalues of (default mixing * dielectric matrix)
  average eigenvalue GAMMA=   1.3194
  3.0240  2.6848  2.1398  1.8365  1.8365  1.2288  0.9556  0.9556  0.8356  0.8356
  0.8120  0.7238  0.6892  0.6257  0.6066

 Free energy of the ion-electron system (eV)
  ---------------------------------------------------
  alpha Z        PSCENC =       400.41018837
  Ewald energy   TEWEN  =     -7821.34091391
  -Hartree energ DENC   =     -6541.47372987
  -exchange      EXHF   =         0.00000000
  -V(xc)+E(xc)   XCENC  =       923.52023481
  PAW double counting   =      9984.66999664    -9855.96026574
  entropy T*S    EENTRO =        -0.00000000
  eigenvalues    EBANDS =     -2323.15150026
  atomic energy  EATOM  =     14750.81523911
  Solvation  Ediel_sol  =         0.00000000
  ---------------------------------------------------
  free energy    TOTEN  =      -482.51075085 eV

[...]
   -.776E-01 0.275E+02 0.350E+02   0.101E+01 -.323E+02 -.400E+02   -.929E+00 0.477E+01 0.497E+01   0.778E-05 0.140E-04 -.559E-05
   0.776E-01 -.275E+02 0.350E+02   -.101E+01 0.323E+02 -.400E+02   0.929E+00 -.477E+01 0.497E+01   -.775E-05 -.140E-04 -.691E-05
   -.776E-01 -.275E+02 0.350E+02   0.101E+01 0.323E+02 -.400E+02   -.929E+00 -.477E+01 0.497E+01   0.780E-05 -.140E-04 -.560E-05
   0.776E-01 0.275E+02 0.350E+02   -.101E+01 -.323E+02 -.400E+02   0.929E+00 0.477E+01 0.497E+01   -.786E-05 0.140E-04 -.693E-05
   -.133E+02 -.342E+02 0.256E+02   0.138E+02 0.404E+02 -.282E+02   -.583E+00 -.620E+01 0.263E+01   0.749E-05 -.105E-04 -.106E-04
   0.133E+02 0.342E+02 0.256E+02   -.138E+02 -.404E+02 -.282E+02   0.583E+00 0.620E+01 0.263E+01   -.746E-05 0.105E-04 -.118E-04
   -.133E+02 0.342E+02 0.256E+02   0.138E+02 -.404E+02 -.282E+02   -.583E+00 0.620E+01 0.263E+01   0.751E-05 0.105E-04 -.106E-04
   0.133E+02 -.342E+02 0.256E+02   -.138E+02 0.404E+02 -.282E+02   0.583E+00 -.620E+01 0.263E+01   -.757E-05 -.105E-04 -.118E-04
   -.427E+02 0.487E+00 -.255E+02   0.474E+02 -.154E+01 0.303E+02   -.478E+01 0.104E+01 -.483E+01   0.659E-05 0.299E-05 -.768E-05
   0.427E+02 -.487E+00 -.255E+02   -.474E+02 0.154E+01 0.303E+02   0.478E+01 -.104E+01 -.483E+01   -.661E-05 -.302E-05 -.843E-05
   -.427E+02 -.487E+00 -.255E+02   0.474E+02 0.154E+01 0.303E+02   -.478E+01 -.104E+01 -.483E+01   0.663E-05 -.299E-05 -.771E-05
   0.427E+02 0.487E+00 -.255E+02   -.474E+02 -.154E+01 0.303E+02   0.478E+01 0.104E+01 -.483E+01   -.670E-05 0.303E-05 -.844E-05
   0.162E+02 0.375E+02 -.352E+02   -.159E+02 -.430E+02 0.400E+02   -.272E+00 0.547E+01 -.479E+01   0.772E-05 -.165E-04 0.277E-04
   -.162E+02 -.375E+02 -.352E+02   0.159E+02 0.430E+02 0.400E+02   0.272E+00 -.547E+01 -.479E+01   -.765E-05 0.166E-04 0.273E-04
   0.162E+02 -.375E+02 -.352E+02   -.159E+02 0.430E+02 0.400E+02   -.272E+00 -.547E+01 -.479E+01   0.765E-05 0.165E-04 0.277E-04
   -.162E+02 0.375E+02 -.352E+02   0.159E+02 -.430E+02 0.400E+02   0.272E+00 0.547E+01 -.479E+01   -.765E-05 -.165E-04 0.273E-04
   0.237E+02 -.421E+02 -.332E+02   -.247E+02 0.484E+02 0.368E+02   0.102E+01 -.624E+01 -.360E+01   0.261E-05 0.206E-04 0.160E-04
   -.237E+02 0.421E+02 -.332E+02   0.247E+02 -.484E+02 0.368E+02   -.102E+01 0.624E+01 -.360E+01   -.253E-05 -.206E-04 0.155E-04
   0.237E+02 0.421E+02 -.332E+02   -.247E+02 -.484E+02 0.368E+02   0.102E+01 0.624E+01 -.360E+01   0.254E-05 -.205E-04 0.160E-04
   -.237E+02 -.421E+02 -.332E+02   0.247E+02 0.484E+02 0.368E+02   -.102E+01 -.624E+01 -.360E+01   -.253E-05 0.206E-04 0.155E-04
   0.141E+03 0.160E+02 -.851E+00   -.168E+03 -.209E+02 -.167E+02   0.269E+02 0.486E+01 0.176E+02   0.801E-04 0.621E-04 0.228E-04
   -.141E+03 -.160E+02 -.850E+00   0.168E+03 0.209E+02 -.167E+02   -.269E+02 -.486E+01 0.176E+02   -.799E-04 -.622E-04 0.183E-04
   0.141E+03 -.160E+02 -.851E+00   -.168E+03 0.209E+02 -.167E+02   0.269E+02 -.486E+01 0.176E+02   0.798E-04 -.621E-04 0.228E-04
   -.141E+03 0.160E+02 -.850E+00   0.168E+03 -.209E+02 -.167E+02   -.269E+02 0.486E+01 0.176E+02   -.799E-04 0.622E-04 0.184E-04
   -.595E+02 -.429E+01 0.414E+02   0.640E+02 0.470E+01 -.438E+02   -.450E+01 -.407E+00 0.239E+01   0.104E-03 0.280E-04 -.174E-03
   0.595E+02 0.429E+01 0.414E+02   -.640E+02 -.470E+01 -.438E+02   0.450E+01 0.407E+00 0.239E+01   -.104E-03 -.280E-04 -.180E-03
   -.595E+02 0.429E+01 0.414E+02   0.640E+02 -.470E+01 -.438E+02   -.450E+01 0.407E+00 0.239E+01   0.104E-03 -.279E-04 -.175E-03
   0.595E+02 -.429E+01 0.414E+02   -.640E+02 0.470E+01 -.438E+02   0.450E+01 -.407E+00 0.239E+01   -.104E-03 0.281E-04 -.180E-03
 -----------------------------------------------------------------------------------------------
   -.187E-02 -.364E-03 -.104E+03   0.142E-12 0.560E-13 -.149E-12   0.000E+00 -.888E-15 0.104E+03   0.915E-07 -.350E-07 -.112E-03
 
 
 POSITION                                       TOTAL-FORCE (eV/Angst)
 -----------------------------------------------------------------------------------
      4.83655      3.81482      5.86282         0.000091      0.000016      0.000159
      4.02850      3.81957      0.13995        -0.000091     -0.000016      0.000159
      0.40403      0.00237      5.86282         0.000091     -0.000016      0.000159
      8.46102      7.63202      0.13995        -0.000091      0.000016      0.000159
      5.06269      4.91608      7.65734         0.001469      0.000113     -0.000892
      3.80236      2.71831      1.93447        -0.001469     -0.000113     -0.000892
      0.63016      6.53550      7.65734         0.001469     -0.000113     -0.000892
      8.23489      1.09889      1.93447        -0.001469      0.000113     -0.000892
      4.44423      4.84859      9.81655        -0.001038     -0.000587     -0.000214
      4.42082      2.78580      4.09368         0.001038      0.000587     -0.000214
      0.01170      6.60299      9.81655        -0.001038      0.000587     -0.000214
      8.85335      1.03140      4.09368         0.001038     -0.000587     -0.000214
      3.94550      5.54470      5.09910         0.002879      0.000467      0.000253
      4.91955      2.08969     10.82197        -0.002879     -0.000467      0.000253
      8.37802      5.90688      5.09910         0.002879     -0.000467      0.000253
      0.48702      1.72751     10.82197        -0.002879      0.000467      0.000253
      2.21196      6.97134      5.03658         0.001059     -0.003161      0.001011
      6.65309      0.66305     10.75945        -0.001059      0.003161      0.001011
      6.64448      4.48025      5.03658         0.001059      0.003161      0.001011
      2.22057      3.15414     10.75945        -0.001059     -0.003161      0.001011
      3.00330      3.19143      6.65205         0.000753     -0.000103     -0.000582
      5.86175      4.44296      0.92918        -0.000753      0.000103     -0.000582
      7.43582      0.62577      6.65205         0.000753      0.000103     -0.000582
      1.42923      7.00863      0.92918        -0.000753     -0.000103     -0.000582
      1.28589      1.75029      6.60378         0.001298      0.000615     -0.000590
      7.57916      5.88410      0.88091        -0.001298     -0.000615     -0.000590
      5.71841      2.06690      6.60378         0.001298     -0.000615     -0.000590
      3.14664      5.56749      0.88091        -0.001298      0.000615     -0.000590
      4.80184      4.29162      8.73798        -0.000031      0.001339     -0.000085
      4.06321      3.34277      3.01510         0.000031     -0.001339     -0.000085
      0.36931      7.15997      8.73798        -0.000031     -0.001339     -0.000085
      8.49574      0.47442      3.01510         0.000031      0.001339     -0.000085
      2.87488      6.02424      5.57299         0.000046      0.000262     -0.000234
      5.99017      1.61015     11.29586        -0.000046     -0.000262     -0.000234
      7.30741      5.42735      5.57299         0.000046     -0.000262     -0.000234
      1.55764      2.20704     11.29586        -0.000046      0.000262     -0.000234
      2.49885      2.06996      6.36676        -0.001631     -0.000643      0.000232
      6.36620      5.56443      0.64388         0.001631      0.000643      0.000232
      6.93138      1.74723      6.36676        -0.001631      0.000643      0.000232
      1.93367      5.88716      0.64388         0.001631     -0.000643      0.000232
      4.89629      3.19152      8.72399         0.000201     -0.000580      0.000091
      3.96876      4.44287      3.00111        -0.000201      0.000580      0.000091
      0.46377      0.62568      8.72399         0.000201      0.000580      0.000091
      8.40128      7.00871      3.00111        -0.000201     -0.000580      0.000091
      2.48630      5.59745      6.51417         0.000116     -0.000226     -0.000090
      6.37875      2.03694      0.79130        -0.000116      0.000226     -0.000090
      6.91882      5.85414      6.51417         0.000116      0.000226     -0.000090
      1.94623      1.78025      0.79130        -0.000116     -0.000226     -0.000090
      3.13597      1.31533      5.87012        -0.000451      0.000173      0.000110
      5.72908      6.31906      0.14724         0.000451     -0.000173      0.000110
      7.56850      2.50186      5.87012        -0.000451     -0.000173      0.000110
      1.29655      5.13253      0.14724         0.000451      0.000173      0.000110
      0.78196      3.12242      7.70065        -0.000157     -0.000122     -0.000279
      8.08309      4.51197      1.97778         0.000157      0.000122     -0.000279
      5.21448      0.69477      7.70065        -0.000157      0.000122     -0.000279
      3.65057      6.93962      1.97778         0.000157     -0.000122     -0.000279
      0.74082      4.80867      8.04044         0.000236     -0.000040     -0.000032
      8.12423      2.82572      2.31757        -0.000236      0.000040     -0.000032
      5.17334      6.64292      8.04044         0.000236      0.000040     -0.000032
      3.69171      0.99147      2.31757        -0.000236     -0.000040     -0.000032
      1.38076      3.68795      9.18577         0.000189     -0.000017     -0.000101
      7.48429      3.94644      3.46290        -0.000189      0.000017     -0.000101
      5.81329      0.12924      9.18577         0.000189      0.000017     -0.000101
      3.05176      7.50515      3.46290        -0.000189     -0.000017     -0.000101
      8.23363      2.98191      9.68856        -0.000073     -0.000248      0.000339
      0.63142      4.65248      3.96569         0.000073      0.000248      0.000339
      3.80111      0.83528      9.68856        -0.000073      0.000248      0.000339
      5.06394      6.79911      3.96569         0.000073     -0.000248      0.000339
      8.05474      4.61991      9.52485        -0.000183     -0.000251      0.000367
      0.81031      3.01448      3.80198         0.000183      0.000251      0.000367
      3.62222      6.83168      9.52485        -0.000183      0.000251      0.000367
      5.24283      0.80271      3.80198         0.000183     -0.000251      0.000367
      8.17186      3.74345      8.99736         0.002443      0.001593     -0.000799
      0.69318      3.89094      3.27449        -0.002443     -0.001593     -0.000799
      3.73934      0.07375      8.99736         0.002443     -0.001593     -0.000799
      5.12571      7.56064      3.27449        -0.002443      0.001593     -0.000799
      0.64745      3.84252      8.44958        -0.001526      0.002105      0.001336
      8.21760      3.79187      2.72671         0.001526     -0.002105      0.001336
      5.07997      7.60907      8.44958        -0.001526     -0.002105      0.001336
      3.78508      0.02532      2.72671         0.001526      0.002105      0.001336
 -----------------------------------------------------------------------------------
    total drift:                               -0.001868     -0.000364      0.002182


--------------------------------------------------------------------------------------------------------



  FREE ENERGIE OF THE ION-ELECTRON SYSTEM (eV)
  ---------------------------------------------------
  free  energy   TOTEN  =      -487.48800516 eV

  energy  without entropy=     -487.48800516  energy(sigma->0) =     -487.48800516
 


--------------------------------------------------------------------------------------------------------


    POTLOK:  cpu time    0.1125: real time    0.1126


--------------------------------------------------------------------------------------------------------


     LOOP+:  cpu time  388.9304: real time  389.3153
    4ORBIT:  cpu time    0.0000: real time    0.0000
 


 total charge     
 
# of ion       s       p       d       tot
------------------------------------------
    1        0.129   0.152   0.065   0.345
    2        0.129   0.152   0.065   0.345
    3        0.129   0.152   0.065   0.345
    4        0.129   0.152   0.065   0.345
    5        1.567   3.593   0.000   5.160
    6        1.567   3.593   0.000   5.160
    7        1.567   3.593   0.000   5.160
    8        1.567   3.593   0.000   5.160
    9        1.568   3.594   0.000   5.162
   10        1.568   3.594   0.000   5.162
   11        1.568   3.594   0.000   5.162
   12        1.568   3.594   0.000   5.162
   13        1.569   3.597   0.000   5.166
   14        1.569   3.597   0.000   5.166
   15        1.569   3.597   0.000   5.166
   16        1.569   3.597   0.000   5.166
   17        1.568   3.591   0.000   5.158
   18        1.568   3.591   0.000   5.158
   19        1.568   3.591   0.000   5.158
   20        1.568   3.591   0.000   5.158
   21        1.569   3.596   0.000   5.165
   22        1.569   3.596   0.000   5.165
   23        1.569   3.596   0.000   5.165
   24        1.569   3.596   0.000   5.165
   25        1.566   3.591   0.000   5.158
   26        1.566   3.591   0.000   5.158
   27        1.566   3.591   0.000   5.158
   28        1.566   3.591   0.000   5.158
   29        0.875   1.704   0.000   2.579
   30        0.875   1.704   0.000   2.579
   31        0.875   1.704   0.000   2.579
   32        0.875   1.704   0.000   2.579
   33        0.876   1.707   0.000   2.583
   34        0.876   1.707   0.000   2.583
   35        0.876   1.707   0.000   2.583
   36        0.876   1.707   0.000   2.583
   37        0.875   1.706   0.000   2.581
   38        0.875   1.706   0.000   2.581
   39        0.875   1.706   0.000   2.581
   40        0.875   1.706   0.000   2.581
   41        0.642   0.046   0.000   0.689
   42        0.642   0.046   0.000   0.689
   43        0.642   0.046   0.000   0.689
   44        0.642   0.046   0.000   0.689
   45        0.641   0.047   0.000   0.688
   46        0.641   0.047   0.000   0.688
   47        0.641   0.047   0.000   0.688
   48        0.641   0.047   0.000   0.688
   49        0.643   0.046   0.000   0.688
   50        0.643   0.046   0.000   0.688
   51        0.643   0.046   0.000   0.688
   52        0.643   0.046   0.000   0.688
   53        0.592   0.087   0.000   0.679
   54        0.592   0.087   0.000   0.679
   55        0.592   0.087   0.000   0.679
   56        0.592   0.087   0.000   0.679
   57        0.584   0.087   0.000   0.670
   58        0.584   0.087   0.000   0.670
   59        0.584   0.087   0.000   0.670
   60        0.584   0.087   0.000   0.670
   61        0.593   0.084   0.000   0.676
   62        0.593   0.084   0.000   0.676
   63        0.593   0.084   0.000   0.676
   64        0.593   0.084   0.000   0.676
   65        0.627   0.087   0.000   0.714
   66        0.627   0.087   0.000   0.714
   67        0.627   0.087   0.000   0.714
   68        0.627   0.087   0.000   0.714
   69        0.630   0.085   0.000   0.715
   70        0.630   0.085   0.000   0.715
   71        0.630   0.085   0.000   0.715
   72        0.630   0.085   0.000   0.715
   73        1.234   2.617   0.000   3.851
   74        1.234   2.617   0.000   3.851
   75        1.234   2.617   0.000   3.851
   76        1.234   2.617   0.000   3.851
   77        1.217   2.731   0.000   3.948
   78        1.217   2.731   0.000   3.948
   79        1.217   2.731   0.000   3.948
   80        1.217   2.731   0.000   3.948
--------------------------------------------------
tot         78.262 130.986   0.258 209.506
 


 magnetization (x)
 
# of ion       s       p       d       tot
------------------------------------------
    1        0.000  -0.000   0.000   0.000
    2        0.000  -0.000   0.000   0.000
    3        0.000  -0.000   0.000   0.000
    4        0.000  -0.000   0.000   0.000
    5        0.000   0.000   0.000   0.000
    6        0.000   0.000   0.000   0.000
    7        0.000   0.000   0.000   0.000
    8        0.000   0.000   0.000   0.000
    9        0.000   0.000   0.000   0.000
   10        0.000   0.000   0.000   0.000
   11        0.000   0.000   0.000   0.000
   12        0.000   0.000   0.000   0.000
   13        0.000   0.000   0.000   0.000
   14        0.000   0.000   0.000   0.000
   15        0.000   0.000   0.000   0.000
   16        0.000   0.000   0.000   0.000
   17        0.000   0.000   0.000   0.000
   18        0.000   0.000   0.000   0.000
   19        0.000   0.000   0.000   0.000
   20        0.000   0.000   0.000   0.000
   21       -0.000  -0.000   0.000  -0.000
   22       -0.000  -0.000   0.000  -0.000
   23       -0.000  -0.000   0.000  -0.000
   24       -0.000  -0.000   0.000  -0.000
   25       -0.000  -0.000   0.000  -0.000
   26       -0.000  -0.000   0.000  -0.000
   27       -0.000  -0.000   0.000  -0.000
   28       -0.000  -0.000   0.000  -0.000
   29       -0.000   0.000   0.000  -0.000
   30       -0.000   0.000   0.000  -0.000
   31       -0.000   0.000   0.000  -0.000
   32       -0.000   0.000   0.000  -0.000
   33       -0.000  -0.000   0.000  -0.000
   34       -0.000  -0.000   0.000  -0.000
   35       -0.000  -0.000   0.000  -0.000
   36       -0.000  -0.000   0.000  -0.000
   37       -0.000   0.000   0.000  -0.000
   38       -0.000   0.000   0.000  -0.000
   39       -0.000   0.000   0.000  -0.000
   40       -0.000   0.000   0.000  -0.000
   41        0.000   0.000   0.000   0.000
   42        0.000   0.000   0.000   0.000
   43        0.000   0.000   0.000   0.000
   44        0.000   0.000   0.000   0.000
   45        0.000   0.000   0.000   0.000
   46        0.000   0.000   0.000   0.000
   47        0.000   0.000   0.000   0.000
   48        0.000   0.000   0.000   0.000
   49        0.000   0.000   0.000   0.000
   50        0.000   0.000   0.000   0.000
   51        0.000   0.000   0.000   0.000
   52        0.000   0.000   0.000   0.000
   53        0.000  -0.000   0.000   0.000
   54        0.000  -0.000   0.000   0.000
   55        0.000  -0.000   0.000   0.000
   56        0.000  -0.000   0.000   0.000
   57        0.000   0.000   0.000   0.000
   58        0.000   0.000   0.000   0.000
   59        0.000   0.000   0.000   0.000
   60        0.000   0.000   0.000   0.000
   61        0.000  -0.000   0.000   0.000
   62        0.000  -0.000   0.000   0.000
   63        0.000  -0.000   0.000   0.000
   64        0.000  -0.000   0.000   0.000
   65        0.000   0.000   0.000   0.000
   66        0.000   0.000   0.000   0.000
   67        0.000   0.000   0.000   0.000
   68        0.000   0.000   0.000   0.000
   69        0.000   0.000   0.000   0.000
   70        0.000   0.000   0.000   0.000
   71        0.000   0.000   0.000   0.000
   72        0.000   0.000   0.000   0.000
   73        0.000  -0.000   0.000  -0.000
   74        0.000  -0.000   0.000  -0.000
   75        0.000  -0.000   0.000  -0.000
   76        0.000  -0.000   0.000  -0.000
   77       -0.000  -0.000   0.000  -0.000
   78       -0.000  -0.000   0.000  -0.000
   79       -0.000  -0.000   0.000  -0.000
   80       -0.000  -0.000   0.000  -0.000
--------------------------------------------------
tot          0.000  -0.000   0.000   0.000
 

 total amount of memory used by VASP MPI-rank0   213757. kBytes
=======================================================================

   base      :      30000. kBytes
   nonl-proj :     109509. kBytes
   fftplans  :       3399. kBytes
   grid      :      48325. kBytes
   one-center:       1297. kBytes
   wavefun   :      21227. kBytes
 
  
  
 General timing and accounting informations for this job:
 ========================================================
  
                  Total CPU time used (sec):      406.159
                            User time (sec):      404.732
                          System time (sec):        1.426
                         Elapsed time (sec):      439.476
  
                   Maximum memory used (kb):      468660.
                   Average memory used (kb):           0.
  
                          Minor page faults:       691544
                          Major page faults:          133
                 Voluntary context switches:        10744
