 vasp.6.3.0 20Jan22 (build Feb 18 2022 09:23:16) complex                         
 executed on            Scout-CPU date 2022.03.17  15:41:46
 running on  120 total cores
 distrk:  each k-point on   60 cores,    2 groups
 distr:  one band on NCORE=   1 cores,   60 groups


--------------------------------------------------------------------------------------------------------


 INCAR:
   AMIX = 0.1
   IVDW = 11           (DFT-D3 method of method with no damping)
   ISPIN = 2 (Spin polarised DFT)
   ISTART = 1            (Read existing wavefunction
   ICHARG = 11         (Non-self-consistent: GGA/LDA band structures)
   LORBIT = 11
   LASPH = T
   GGA_COMPAT = .FALSE.
   LREAL = .FALSE.       (Projection operators: automatic)
   ENCUT = 850.0      (Cut-off energy for plane wave basis set, in eV)
   ENAUG = 1500.0
   PREC = Accurate     (Precision level)
   LMAXMIX = 4
   LWAVE = F
   LCHARG = F
   ADDGRID = .TRUE.        (Increase grid
   LPLANE = .TRUE.      (Real space distribution
   NWRITE = 2           (Medium-level output)
   KPAR = 2           (Divides k-grid into separate groups)
   NSW = 0          (number of ionic steps)
   ISMEAR = 0            (gaussian smearing method )
   SIGMA = 0.05         (please check the width of the smearing)
   IBRION = -1            (Algorithm: 0-MD
   POTIM = 0.1
   ISIF = 3            (optimize atomic coordinates and lattice parameters)
   EDIFFG = -0.005       (Ionic convergence
   EDIFF = 1.0d-10
   NELM = 50
   NELMIN = 6
   NELMDL = -8
   ALGO = Normal
   MAGMOM = 4 -4 4 -4   88*0
   LCALCPOL = T

 POTCAR:    PAW_PBE Ni 02Aug2007                  
 POTCAR:    PAW_PBE C 08Apr2002                   
 POTCAR:    PAW_PBE H 15Jun2001                   
 POTCAR:    PAW_PBE N 08Apr2002                   
 POTCAR:    PAW_PBE O 08Apr2002                   
 -----------------------------------------------------------------------------
|                                                                             |
|           W    W    AA    RRRRR   N    N  II  N    N   GGGG   !!!           |
|           W    W   A  A   R    R  NN   N  II  NN   N  G    G  !!!           |
|           W    W  A    A  R    R  N N  N  II  N N  N  G       !!!           |
|           W WW W  AAAAAA  RRRRR   N  N N  II  N  N N  G  GGG   !            |
|           WW  WW  A    A  R   R   N   NN  II  N   NN  G    G                |
|           W    W  A    A  R    R  N    N  II  N    N   GGGG   !!!           |
|                                                                             |
|     For optimal performance we recommend to set                             |
|       NCORE = 2 up to number-of-cores-per-socket                            |
|     NCORE specifies how many cores store one orbital (NPAR=cpu/NCORE).      |
|     This setting can greatly improve the performance of VASP for DFT.       |
|     The default, NCORE=1 might be grossly inefficient on modern             |
|     multi-core architectures or massively parallel machines. Do your        |
|     own testing! More info at https://www.vasp.at/wiki/index.php/NCORE      |
|     Unfortunately you need to use the default for GW and RPA                |
|     calculations (for HF NCORE is supported but not extensively tested      |
|     yet).                                                                   |
|                                                                             |
 -----------------------------------------------------------------------------

 POTCAR:    PAW_PBE Ni 02Aug2007                  
   SHA256 =  0534bc51ca8003dfef23f56753fef9fdd3e22eac8d719fccacb59f3e6b7a69c7 Ni/POTCAR             
   COPYR  = (c) Copyright 02Aug2007 Georg Kresse                                                    
   COPYR  = This file is part of the software VASP. Any use, copying, and all other rights are regul
   COPYR  = If you do not have a valid VASP license, you may not use, copy or distribute this file. 
   VRHFIN =Ni:                                                                                      
   LEXCH  = PE                                                                                      
   EATOM  =  1077.6739 eV,   79.2068 Ry                                                             
                                                                                                    
   TITEL  = PAW_PBE Ni 02Aug2007                                                                    
   LULTRA =        F    use ultrasoft PP ?                                                          
   IUNSCR =        1    unscreen: 0-lin 1-nonlin 2-no                                               
   RPACOR =    2.000    partial core radius                                                         
   POMASS =   58.690; ZVAL   =   10.000    mass and valenz                                          
   RCORE  =    2.300    outmost cutoff radius                                                       
   RWIGS  =    2.430; RWIGS  =    1.286    wigner-seitz radius (au A)                               
   ENMAX  =  269.532; ENMIN  =  202.149 eV                                                          
   RCLOC  =    1.201    cutoff for local pot                                                        
   LCOR   =        T    correct aug charges                                                         
   LPAW   =        T    paw PP                                                                      
   EAUG   =  544.565                                                                                
   DEXC   =    0.000                                                                                
   RMAX   =    2.357    core radius for proj-oper                                                   
   RAUG   =    1.300    factor for augmentation sphere                                              
   RDEP   =    2.390    radius for radial grids                                                     
   RDEPT  =    1.838    core radius for aug-charge                                                  
                                                                                                    
   Atomic configuration                                                                             
    9 entries                                                                                       
     n  l   j            E        occ.                                                              
     1  0  0.50     -8206.4253   2.0000                                                             
     2  0  0.50      -976.1748   2.0000                                                             
     2  1  1.50      -839.0571   6.0000                                                             
     3  0  0.50      -105.9991   2.0000                                                             
     3  1  1.50       -66.4603   6.0000                                                             
     3  2  2.50        -4.6458   9.0000                                                             
     4  0  0.50        -4.4926   1.0000                                                             
     4  1  1.50        -4.0817   0.0000                                                             
     4  3  2.50        -1.3606   0.0000                                                             
   Description                                                                                      
     l       E           TYP  RCUT    TYP  RCUT                                                     
     2     -4.6457903     23  2.300                                                                 
     2     -6.0063729     23  2.300                                                                 
     0     -4.4925590     23  2.300                                                                 
     0      5.0102601     23  2.300                                                                 
     1     -2.7211652     23  2.300                                                                 
     1     16.5183231     23  2.300                                                                 
  local pseudopotential read in
  partial core-charges read in
  partial kinetic energy density read in
  atomic valenz-charges read in
  non local Contribution for L=            2  read in
    real space projection operators read in
  non local Contribution for L=            2  read in
    real space projection operators read in
  non local Contribution for L=            0  read in
    real space projection operators read in
  non local Contribution for L=            0  read in
    real space projection operators read in
  non local Contribution for L=            1  read in
    real space projection operators read in
  non local Contribution for L=            1  read in
    real space projection operators read in
    PAW grid and wavefunctions read in
 
   number of l-projection  operators is LMAX  =            6
   number of lm-projection operators is LMMAX =           18
 
 POTCAR:    PAW_PBE C 08Apr2002                   
   SHA256 =  253f7b50bb8d59471dbedb8285d89021f4a42ed1a2c5d38a03a736e69125dd95 C/POTCAR              
   COPYR  = (c) Copyright 08Apr2002 Georg Kresse                                                    
   COPYR  = This file is part of the software VASP. Any use, copying, and all other rights are regul
   COPYR  = If you do not have a valid VASP license, you may not use, copy or distribute this file. 
   VRHFIN =C: s2p2                                                                                  
   LEXCH  = PE                                                                                      
   EATOM  =   147.1560 eV,   10.8157 Ry                                                             
                                                                                                    
   TITEL  = PAW_PBE C 08Apr2002                                                                     
   LULTRA =        F    use ultrasoft PP ?                                                          
   IUNSCR =        1    unscreen: 0-lin 1-nonlin 2-no                                               
   RPACOR =    1.200    partial core radius                                                         
   POMASS =   12.011; ZVAL   =    4.000    mass and valenz                                          
   RCORE  =    1.500    outmost cutoff radius                                                       
   RWIGS  =    1.630; RWIGS  =    0.863    wigner-seitz radius (au A)                               
   ENMAX  =  400.000; ENMIN  =  300.000 eV                                                          
   ICORE  =        2    local potential                                                             
   LCOR   =        T    correct aug charges                                                         
   LPAW   =        T    paw PP                                                                      
   EAUG   =  644.873                                                                                
   DEXC   =    0.000                                                                                
   RMAX   =    1.529    core radius for proj-oper                                                   
   RAUG   =    1.300    factor for augmentation sphere                                              
   RDEP   =    1.501    radius for radial grids                                                     
   RDEPT  =    1.300    core radius for aug-charge                                                  
                                                                                                    
   Atomic configuration                                                                             
    4 entries                                                                                       
     n  l   j            E        occ.                                                              
     1  0  0.50      -273.3789   2.0000                                                             
     2  0  0.50       -13.7508   2.0000                                                             
     2  1  0.50        -5.2854   2.0000                                                             
     3  2  1.50        -5.4423   0.0000                                                             
   Description                                                                                      
     l       E           TYP  RCUT    TYP  RCUT                                                     
     0    -13.7508458     23  1.200                                                                 
     0     -8.2022199     23  1.200                                                                 
     1     -5.2854383     23  1.500                                                                 
     1     34.0145650     23  1.500                                                                 
     2     -5.4423304      7  1.500                                                                 
  local pseudopotential read in
  partial core-charges read in
  partial kinetic energy density read in
  atomic valenz-charges read in
  non local Contribution for L=            0  read in
    real space projection operators read in
  non local Contribution for L=            0  read in
    real space projection operators read in
  non local Contribution for L=            1  read in
    real space projection operators read in
  non local Contribution for L=            1  read in
    real space projection operators read in
    PAW grid and wavefunctions read in
 
   number of l-projection  operators is LMAX  =            4
   number of lm-projection operators is LMMAX =            8
 
 POTCAR:    PAW_PBE H 15Jun2001                   
   SHA256 =  030f79b5d3ab3cf0e668861823c8fb652ff669f3e15e46930bd03bfd63a607b6 H/POTCAR              
   COPYR  = (c) Copyright 15Jun2001 Georg Kresse                                                    
   COPYR  = This file is part of the software VASP. Any use, copying, and all other rights are regul
   COPYR  = If you do not have a valid VASP license, you may not use, copy or distribute this file. 
   VRHFIN =H: ultrasoft test                                                                        
   LEXCH  = PE                                                                                      
   EATOM  =    12.4884 eV,    0.9179 Ry                                                             
                                                                                                    
   TITEL  = PAW_PBE H 15Jun2001                                                                     
   LULTRA =        F    use ultrasoft PP ?                                                          
   IUNSCR =        0    unscreen: 0-lin 1-nonlin 2-no                                               
   RPACOR =    0.000    partial core radius                                                         
   POMASS =    1.000; ZVAL   =    1.000    mass and valenz                                          
   RCORE  =    1.100    outmost cutoff radius                                                       
   RWIGS  =    0.700; RWIGS  =    0.370    wigner-seitz radius (au A)                               
   ENMAX  =  250.000; ENMIN  =  200.000 eV                                                          
   RCLOC  =    0.701    cutoff for local pot                                                        
   LCOR   =        T    correct aug charges                                                         
   LPAW   =        T    paw PP                                                                      
   EAUG   =  400.000                                                                                
   RMAX   =    1.123    core radius for proj-oper                                                   
   RAUG   =    1.200    factor for augmentation sphere                                              
   RDEP   =    1.112    radius for radial grids                                                     
   RDEPT  =    0.926    core radius for aug-charge                                                  
                                                                                                    
   Atomic configuration                                                                             
    2 entries                                                                                       
     n  l   j            E        occ.                                                              
     1  0  0.50        -6.4927   1.0000                                                             
     2  1  0.50        -3.4015   0.0000                                                             
   Description                                                                                      
     l       E           TYP  RCUT    TYP  RCUT                                                     
     0     -6.4927494     23  1.100                                                                 
     0      6.8029130     23  1.100                                                                 
     1     -4.0817478     23  1.100                                                                 
  local pseudopotential read in
  atomic valenz-charges read in
  non local Contribution for L=            0  read in
    real space projection operators read in
  non local Contribution for L=            0  read in
    real space projection operators read in
  non local Contribution for L=            1  read in
    real space projection operators read in
    PAW grid and wavefunctions read in
 
   number of l-projection  operators is LMAX  =            3
   number of lm-projection operators is LMMAX =            5
 
 POTCAR:    PAW_PBE N 08Apr2002                   
   SHA256 =  e053789ff3a61a86a1b75d8a110fcc91f86041011e7b0817c7c99e4e8a6349d7 N/POTCAR              
   COPYR  = (c) Copyright 08Apr2002 Georg Kresse                                                    
   COPYR  = This file is part of the software VASP. Any use, copying, and all other rights are regul
   COPYR  = If you do not have a valid VASP license, you may not use, copy or distribute this file. 
   VRHFIN =N: s2p3                                                                                  
   LEXCH  = PE                                                                                      
   EATOM  =   264.5486 eV,   19.4438 Ry                                                             
                                                                                                    
   TITEL  = PAW_PBE N 08Apr2002                                                                     
   LULTRA =        F    use ultrasoft PP ?                                                          
   IUNSCR =        1    unscreen: 0-lin 1-nonlin 2-no                                               
   RPACOR =    1.200    partial core radius                                                         
   POMASS =   14.001; ZVAL   =    5.000    mass and valenz                                          
   RCORE  =    1.500    outmost cutoff radius                                                       
   RWIGS  =    1.400; RWIGS  =    0.741    wigner-seitz radius (au A)                               
   ENMAX  =  400.000; ENMIN  =  300.000 eV                                                          
   ICORE  =        2    local potential                                                             
   LCOR   =        T    correct aug charges                                                         
   LPAW   =        T    paw PP                                                                      
   EAUG   =  627.112                                                                                
   DEXC   =    0.000                                                                                
   RMAX   =    1.529    core radius for proj-oper                                                   
   RAUG   =    1.300    factor for augmentation sphere                                              
   RDEP   =    1.514    radius for radial grids                                                     
   RDEPT  =    1.338    core radius for aug-charge                                                  
                                                                                                    
   Atomic configuration                                                                             
    4 entries                                                                                       
     n  l   j            E        occ.                                                              
     1  0  0.50      -384.7179   2.0000                                                             
     2  0  0.50       -18.5828   2.0000                                                             
     2  1  0.50        -7.0898   3.0000                                                             
     3  2  1.50        -6.8029   0.0000                                                             
   Description                                                                                      
     l       E           TYP  RCUT    TYP  RCUT                                                     
     0    -18.5828119     23  1.200                                                                 
     0    -13.5018863     23  1.200                                                                 
     1     -7.0897853     23  1.500                                                                 
     1      9.5240782     23  1.500                                                                 
     2     -6.8029130      7  1.500                                                                 
  local pseudopotential read in
  partial core-charges read in
  partial kinetic energy density read in
  atomic valenz-charges read in
  non local Contribution for L=            0  read in
    real space projection operators read in
  non local Contribution for L=            0  read in
    real space projection operators read in
  non local Contribution for L=            1  read in
    real space projection operators read in
  non local Contribution for L=            1  read in
    real space projection operators read in
    PAW grid and wavefunctions read in
 
   number of l-projection  operators is LMAX  =            4
   number of lm-projection operators is LMMAX =            8
 
 POTCAR:    PAW_PBE O 08Apr2002                   
   SHA256 =  818f92134a0a090dccd8ba1447fa70422a3b330e708bb4f08108d8ae51209ddf O/POTCAR              
   COPYR  = (c) Copyright 08Apr2002 Georg Kresse                                                    
   COPYR  = This file is part of the software VASP. Any use, copying, and all other rights are regul
   COPYR  = If you do not have a valid VASP license, you may not use, copy or distribute this file. 
   VRHFIN =O: s2p4                                                                                  
   LEXCH  = PE                                                                                      
   EATOM  =   432.3788 eV,   31.7789 Ry                                                             
                                                                                                    
   TITEL  = PAW_PBE O 08Apr2002                                                                     
   LULTRA =        F    use ultrasoft PP ?                                                          
   IUNSCR =        1    unscreen: 0-lin 1-nonlin 2-no                                               
   RPACOR =    1.200    partial core radius                                                         
   POMASS =   16.000; ZVAL   =    6.000    mass and valenz                                          
   RCORE  =    1.520    outmost cutoff radius                                                       
   RWIGS  =    1.550; RWIGS  =    0.820    wigner-seitz radius (au A)                               
   ENMAX  =  400.000; ENMIN  =  300.000 eV                                                          
   ICORE  =        2    local potential                                                             
   LCOR   =        T    correct aug charges                                                         
   LPAW   =        T    paw PP                                                                      
   EAUG   =  605.392                                                                                
   DEXC   =    0.000                                                                                
   RMAX   =    1.553    core radius for proj-oper                                                   
   RAUG   =    1.300    factor for augmentation sphere                                              
   RDEP   =    1.550    radius for radial grids                                                     
   RDEPT  =    1.329    core radius for aug-charge                                                  
                                                                                                    
   Atomic configuration                                                                             
    4 entries                                                                                       
     n  l   j            E        occ.                                                              
     1  0  0.50      -514.6923   2.0000                                                             
     2  0  0.50       -23.9615   2.0000                                                             
     2  1  0.50        -9.0305   4.0000                                                             
     3  2  1.50        -9.5241   0.0000                                                             
   Description                                                                                      
     l       E           TYP  RCUT    TYP  RCUT                                                     
     0    -23.9615318     23  1.200                                                                 
     0     -9.5240782     23  1.200                                                                 
     1     -9.0304911     23  1.520                                                                 
     1      8.1634956     23  1.520                                                                 
     2     -9.5240782      7  1.500                                                                 
  local pseudopotential read in
  partial core-charges read in
  partial kinetic energy density read in
  kinetic energy density of atom read in
  atomic valenz-charges read in
  non local Contribution for L=            0  read in
    real space projection operators read in
  non local Contribution for L=            0  read in
    real space projection operators read in
  non local Contribution for L=            1  read in
    real space projection operators read in
  non local Contribution for L=            1  read in
    real space projection operators read in
    PAW grid and wavefunctions read in
 
   number of l-projection  operators is LMAX  =            4
   number of lm-projection operators is LMMAX =            8
 
 -----------------------------------------------------------------------------
|                                                                             |
|               ----> ADVICE to this user running VASP <----                  |
|                                                                             |
|     You have a (more or less) 'large supercell' and for larger cells it     |
|     might be more efficient to use real-space projection operators.         |
|     Therefore, try LREAL= Auto in the INCAR file.                           |
|     Mind: For very accurate calculation, you might also keep the            |
|     reciprocal projection scheme (i.e. LREAL=.FALSE.).                      |
|                                                                             |
 -----------------------------------------------------------------------------

  PAW_PBE Ni 02Aug2007                  :
 energy of atom  1       EATOM=-1077.6739
 kinetic energy error for atom=    0.0005 (will be added to EATOM!!)
  PAW_PBE C 08Apr2002                   :
 energy of atom  2       EATOM= -147.1560
 kinetic energy error for atom=    0.0012 (will be added to EATOM!!)
  PAW_PBE H 15Jun2001                   :
 energy of atom  3       EATOM=  -12.4884
 kinetic energy error for atom=    0.0002 (will be added to EATOM!!)
  PAW_PBE N 08Apr2002                   :
 energy of atom  4       EATOM= -264.5486
 kinetic energy error for atom=    0.0021 (will be added to EATOM!!)
  PAW_PBE O 08Apr2002                   :
 energy of atom  5       EATOM= -432.3788
 kinetic energy error for atom=    0.0031 (will be added to EATOM!!)
 
 
 POSCAR: crystal
  positions in direct lattice
  velocities in cartesian coordinates
 exchange correlation table for  LEXCH =        8
   RHO(1)=    0.500       N(1)  =     2000
   RHO(2)=  100.500       N(2)  =     4000
 


--------------------------------------------------------------------------------------------------------


 ion  position               nearest neighbor table
   1  0.262  0.250  0.250-  77 2.08  79 2.08  69 2.09  71 2.09  90 2.10  92 2.10
   2  0.238  0.750  0.250-  78 2.08  80 2.08  70 2.09  72 2.09  89 2.10  91 2.10
   3  0.738  0.750  0.750-  81 2.08  83 2.08  73 2.09  75 2.09  86 2.10  88 2.10
   4  0.762  0.250  0.750-  84 2.08  82 2.08  74 2.09  76 2.09  85 2.10  87 2.10
   5  0.250  0.500  0.303-  21 1.10  69 1.27  70 1.27
   6  0.250  0.000  0.197-  22 1.10  71 1.27  72 1.27
   7  0.750  0.500  0.697-  23 1.10  73 1.27  74 1.27
   8  0.750  0.000  0.803-  24 1.10  75 1.27  76 1.27
   9  0.532  0.222  0.484-  41 1.11  77 1.27  85 1.27
  10  0.968  0.778  0.484-  42 1.11  78 1.27  86 1.27
  11  0.532  0.278  0.016-  43 1.11  79 1.27  87 1.27
  12  0.968  0.722  0.016-  44 1.11  80 1.27  88 1.27
  13  0.468  0.778  0.516-  45 1.11  81 1.27  89 1.27
  14  0.032  0.222  0.516-  46 1.11  82 1.27  90 1.27
  15  0.468  0.722  0.984-  47 1.11  83 1.27  91 1.27
  16  0.032  0.278  0.984-  48 1.11  84 1.27  92 1.27
  17  0.250  0.500  0.759-  65 1.33  58 1.34  57 1.34
  18  0.250  0.000  0.741-  66 1.33  60 1.34  59 1.34
  19  0.750  0.500  0.241-  67 1.33  62 1.34  61 1.34
  20  0.750  0.000  0.259-  68 1.33  64 1.34  63 1.34
  21  0.250  0.500  0.180-   5 1.10
  22  0.250  0.000  0.320-   6 1.10
  23  0.750  0.500  0.820-   7 1.10
  24  0.750  0.000  0.680-   8 1.10
  25  0.428  0.379  0.743-  57 1.02
  26  0.072  0.621  0.743-  58 1.02
  27  0.428  0.121  0.757-  59 1.02
  28  0.072  0.879  0.757-  60 1.02
  29  0.572  0.621  0.257-  61 1.02
  30  0.928  0.379  0.257-  62 1.02
  31  0.572  0.879  0.243-  63 1.02
  32  0.928  0.121  0.243-  64 1.02
  33  0.333  0.418  0.570-  57 1.03
  34  0.167  0.582  0.570-  58 1.03
  35  0.333  0.082  0.930-  59 1.03
  36  0.167  0.918  0.930-  60 1.03
  37  0.667  0.582  0.430-  61 1.03
  38  0.833  0.418  0.430-  62 1.03
  39  0.667  0.918  0.070-  63 1.03
  40  0.833  0.082  0.070-  64 1.03
  41  0.603  0.291  0.430-   9 1.11
  42  0.897  0.709  0.430-  10 1.11
  43  0.603  0.209  0.070-  11 1.11
  44  0.897  0.791  0.070-  12 1.11
  45  0.397  0.709  0.570-  13 1.11
  46  0.103  0.291  0.570-  14 1.11
  47  0.397  0.791  0.930-  15 1.11
  48  0.103  0.209  0.930-  16 1.11
  49  0.186  0.561  0.967-  65 1.03
  50  0.314  0.439  0.967-  65 1.03
  51  0.186  0.939  0.533-  66 1.03
  52  0.314  0.061  0.533-  66 1.03
  53  0.814  0.439  0.033-  67 1.03
  54  0.686  0.561  0.033-  67 1.03
  55  0.814  0.061  0.467-  68 1.03
  56  0.686  0.939  0.467-  68 1.03
  57  0.346  0.427  0.684-  25 1.02  33 1.03  17 1.34
  58  0.154  0.573  0.684-  26 1.02  34 1.03  17 1.34
  59  0.346  0.073  0.816-  27 1.02  35 1.03  18 1.34
  60  0.154  0.927  0.816-  28 1.02  36 1.03  18 1.34
  61  0.654  0.573  0.316-  29 1.02  37 1.03  19 1.34
  62  0.846  0.427  0.316-  30 1.02  38 1.03  19 1.34
  63  0.654  0.927  0.184-  31 1.02  39 1.03  20 1.34
  64  0.846  0.073  0.184-  32 1.02  40 1.03  20 1.34
  65  0.250  0.500  0.909-  49 1.03  50 1.03  17 1.33
  66  0.250  0.000  0.591-  51 1.03  52 1.03  18 1.33
  67  0.750  0.500  0.091-  53 1.03  54 1.03  19 1.33
  68  0.750  0.000  0.409-  55 1.03  56 1.03  20 1.33
  69  0.264  0.404  0.370-   5 1.27   1 2.09
  70  0.236  0.596  0.370-   5 1.27   2 2.09
  71  0.264  0.096  0.130-   6 1.27   1 2.09
  72  0.236  0.904  0.130-   6 1.27   2 2.09
  73  0.736  0.596  0.630-   7 1.27   3 2.09
  74  0.764  0.404  0.630-   7 1.27   4 2.09
  75  0.736  0.904  0.870-   8 1.27   3 2.09
  76  0.764  0.096  0.870-   8 1.27   4 2.09
  77  0.413  0.179  0.413-   9 1.27   1 2.08
  78  0.087  0.821  0.413-  10 1.27   2 2.08
  79  0.413  0.321  0.087-  11 1.27   1 2.08
  80  0.087  0.679  0.087-  12 1.27   2 2.08
  81  0.587  0.821  0.587-  13 1.27   3 2.08
  82  0.913  0.179  0.587-  14 1.27   4 2.08
  83  0.587  0.679  0.913-  15 1.27   3 2.08
  84  0.913  0.321  0.913-  16 1.27   4 2.08
  85  0.572  0.189  0.615-   9 1.27   4 2.10
  86  0.928  0.811  0.615-  10 1.27   3 2.10
  87  0.572  0.311  0.885-  11 1.27   4 2.10
  88  0.928  0.689  0.885-  12 1.27   3 2.10
  89  0.428  0.811  0.385-  13 1.27   2 2.10
  90  0.072  0.189  0.385-  14 1.27   1 2.10
  91  0.428  0.689  0.115-  15 1.27   2 2.10
  92  0.072  0.311  0.115-  16 1.27   1 2.10
 
  LATTYP: Found a simple orthorhombic cell.
 ALAT       =     8.2381763937
 B/A-ratio  =     1.0813707444
 C/A-ratio  =     1.4114019979
  
  Lattice vectors:
  
 A1 = (  -8.2381763937,   0.0000000000,   0.0000000000)
 A2 = (   0.0000000000,   0.0000000000,   8.9085229390)
 A3 = (   0.0000000000,  11.6273786208,   0.0000000000)


Analysis of symmetry for initial positions (statically):
=====================================================================
 Subroutine PRICEL returns:
 Original cell was already a primitive cell.
 

 Routine SETGRP: Setting up the symmetry group for a 
 simple orthorhombic supercell.


 Subroutine GETGRP returns: Found  8 space group operations
 (whereof  2 operations were pure point group operations)
 out of a pool of  8 trial point group operations.


The static configuration has the point symmetry S_2 .
 The point group associated with its full space group is D_2h.


Analysis of symmetry for dynamics (positions and initial velocities):
=====================================================================
 Subroutine PRICEL returns:
 Original cell was already a primitive cell.
 

 Routine SETGRP: Setting up the symmetry group for a 
 simple orthorhombic supercell.


 Subroutine GETGRP returns: Found  8 space group operations
 (whereof  2 operations were pure point group operations)
 out of a pool of  8 trial point group operations.


The dynamic configuration has the point symmetry S_2 .
 The point group associated with its full space group is D_2h.


Analysis of structural, dynamic, and magnetic symmetry:
=====================================================================
 Subroutine PRICEL returns:
 Original cell was already a primitive cell.
 

 Routine SETGRP: Setting up the symmetry group for a 
 simple orthorhombic supercell.


 Subroutine GETGRP returns: Found  8 space group operations
 (whereof  2 operations were pure point group operations)
 out of a pool of  8 trial point group operations.


The overall configuration has the point symmetry S_2 .
 The point group associated with its full space group is D_2h.


 Subroutine INISYM returns: Found  8 space group operations
 (whereof  2 operations are pure point group operations),
 and found     1 'primitive' translations


----------------------------------------------------------------------------------------

                                     Primitive cell                                     

  volume of cell :     853.3331

  direct lattice vectors                    reciprocal lattice vectors
     8.238176394  0.000000000 -0.000000000     0.121386087 -0.000000000  0.000000000
     0.000000000 11.627378621  0.000000000    -0.000000000  0.086003908 -0.000000000
    -0.000000000  0.000000000  8.908522939     0.000000000 -0.000000000  0.112252054

  length of vectors
     8.238176394 11.627378621  8.908522939     0.121386087  0.086003908  0.112252054

  position of ions in fractional coordinates (direct lattice)
     0.262369187  0.250000000  0.250000000
     0.237630813  0.750000000  0.250000000
     0.737630813  0.750000000  0.750000000
     0.762369187  0.250000000  0.750000000
     0.250000000  0.500000000  0.302738386
     0.250000000  0.000000000  0.197261614
     0.750000000  0.500000000  0.697261614
     0.750000000  0.000000000  0.802738386
     0.531761288  0.221847635  0.483938031
     0.968238712  0.778152365  0.483938031
     0.531761288  0.278152365  0.016061969
     0.968238712  0.721847635  0.016061969
     0.468238712  0.778152365  0.516061969
     0.031761288  0.221847635  0.516061969
     0.468238712  0.721847635  0.983938031
     0.031761288  0.278152365  0.983938031
     0.250000000  0.500000000  0.758909190
     0.250000000  0.000000000  0.741090810
     0.750000000  0.500000000  0.241090810
     0.750000000  0.000000000  0.258909190
     0.250000000  0.500000000  0.179750338
     0.250000000  0.000000000  0.320249662
     0.750000000  0.500000000  0.820249662
     0.750000000  0.000000000  0.679750338
     0.428497355  0.378874061  0.743076945
     0.071502645  0.621125939  0.743076945
     0.428497355  0.121125939  0.756923055
     0.071502645  0.878874061  0.756923055
     0.571502645  0.621125939  0.256923055
     0.928497355  0.378874061  0.256923055
     0.571502645  0.878874061  0.243076945
     0.928497355  0.121125939  0.243076945
     0.332681091  0.418196712  0.570148404
     0.167318909  0.581803288  0.570148404
     0.332681091  0.081803288  0.929851596
     0.167318909  0.918196712  0.929851596
     0.667318909  0.581803288  0.429851596
     0.832681091  0.418196712  0.429851596
     0.667318909  0.918196712  0.070148404
     0.832681091  0.081803288  0.070148404
     0.602955636  0.291050202  0.429932361
     0.897044364  0.708949798  0.429932361
     0.602955636  0.208949798  0.070067639
     0.897044364  0.791050202  0.070067639
     0.397044364  0.708949798  0.570067639
     0.102955636  0.291050202  0.570067639
     0.397044364  0.791050202  0.929932361
     0.102955636  0.208949798  0.929932361
     0.185896928  0.561287736  0.966546128
     0.314103072  0.438712264  0.966546128
     0.185896928  0.938712264  0.533453872
     0.314103072  0.061287736  0.533453872
     0.814103072  0.438712264  0.033453872
     0.685896928  0.561287736  0.033453872
     0.814103072  0.061287736  0.466546128
     0.685896928  0.938712264  0.466546128
     0.346023530  0.426814246  0.684024689
     0.153976470  0.573185754  0.684024689
     0.346023530  0.073185754  0.815975311
     0.153976470  0.926814246  0.815975311
     0.653976470  0.573185754  0.315975311
     0.846023530  0.426814246  0.315975311
     0.653976470  0.926814246  0.184024689
     0.846023530  0.073185754  0.184024689
     0.250000000  0.500000000  0.908541239
     0.250000000  0.000000000  0.591458761
     0.750000000  0.500000000  0.091458761
     0.750000000  0.000000000  0.408541239
     0.263672006  0.404143665  0.370170362
     0.236327994  0.595856335  0.370170362
     0.263672006  0.095856335  0.129829638
     0.236327994  0.904143665  0.129829638
     0.736327994  0.595856335  0.629829638
     0.763672006  0.404143665  0.629829638
     0.736327994  0.904143665  0.870170362
     0.763672006  0.095856335  0.870170362
     0.412691213  0.178575515  0.413104900
     0.087308787  0.821424485  0.413104900
     0.412691213  0.321424485  0.086895100
     0.087308787  0.678575515  0.086895100
     0.587308787  0.821424485  0.586895100
     0.912691213  0.178575515  0.586895100
     0.587308787  0.678575515  0.913104900
     0.912691213  0.321424485  0.913104900
     0.571728560  0.189007279  0.614929993
     0.928271440  0.810992721  0.614929993
     0.571728560  0.310992721  0.885070007
     0.928271440  0.689007279  0.885070007
     0.428271440  0.810992721  0.385070007
     0.071728560  0.189007279  0.385070007
     0.428271440  0.689007279  0.114929993
     0.071728560  0.310992721  0.114929993

  ion indices of the primitive-cell ions
   primitive index   ion index
                 1           1
                 2           2
                 3           3
                 4           4
                 5           5
                 6           6
                 7           7
                 8           8
                 9           9
                10          10
                11          11
                12          12
                13          13
                14          14
                15          15
                16          16
                17          17
                18          18
                19          19
                20          20
                21          21
                22          22
                23          23
                24          24
                25          25
                26          26
                27          27
                28          28
                29          29
                30          30
                31          31
                32          32
                33          33
                34          34
                35          35
                36          36
                37          37
                38          38
                39          39
                40          40
                41          41
                42          42
                43          43
                44          44
                45          45
                46          46
                47          47
                48          48
                49          49
                50          50
                51          51
                52          52
                53          53
                54          54
                55          55
                56          56
                57          57
                58          58
                59          59
                60          60
                61          61
                62          62
                63          63
                64          64
                65          65
                66          66
                67          67
                68          68
                69          69
                70          70
                71          71
                72          72
                73          73
                74          74
                75          75
                76          76
                77          77
                78          78
                79          79
                80          80
                81          81
                82          82
                83          83
                84          84
                85          85
                86          86
                87          87
                88          88
                89          89
                90          90
                91          91
                92          92

----------------------------------------------------------------------------------------

 
 
 KPOINTS: K-Spacing Value to Generate K-Mesh: 0.04

Automatic generation of k-mesh.
 Grid dimensions read from file:
 generate k-points for:    8    3    8

 Generating k-lattice:

  Cartesian coordinates                     Fractional coordinates (reciprocal lattice)
     0.015173261 -0.000000000  0.000000000     0.125000000  0.000000000  0.000000000
    -0.000000000  0.028667969 -0.000000000     0.000000000  0.333333333  0.000000000
     0.000000000 -0.000000000  0.014031507     0.000000000  0.000000000  0.125000000

  Length of vectors
     0.015173261  0.028667969  0.014031507

  Shift w.r.t. Gamma in fractional coordinates (k-lattice)
     0.500000000  0.000000000  0.500000000

 
 Subroutine IBZKPT returns following result:
 ===========================================
 
 Found     32 irreducible k-points:
 
 Following reciprocal coordinates:
            Coordinates               Weight
  0.062500  0.000000  0.062500      4.000000
  0.187500  0.000000  0.062500      4.000000
  0.312500  0.000000  0.062500      4.000000
  0.437500  0.000000  0.062500      4.000000
  0.062500  0.333333  0.062500      8.000000
  0.187500  0.333333  0.062500      8.000000
  0.312500  0.333333  0.062500      8.000000
  0.437500  0.333333  0.062500      8.000000
  0.062500  0.000000  0.187500      4.000000
  0.187500  0.000000  0.187500      4.000000
  0.312500  0.000000  0.187500      4.000000
  0.437500  0.000000  0.187500      4.000000
  0.062500  0.333333  0.187500      8.000000
  0.187500  0.333333  0.187500      8.000000
  0.312500  0.333333  0.187500      8.000000
  0.437500  0.333333  0.187500      8.000000
  0.062500  0.000000  0.312500      4.000000
  0.187500  0.000000  0.312500      4.000000
  0.312500  0.000000  0.312500      4.000000
  0.437500  0.000000  0.312500      4.000000
  0.062500  0.333333  0.312500      8.000000
  0.187500  0.333333  0.312500      8.000000
  0.312500  0.333333  0.312500      8.000000
  0.437500  0.333333  0.312500      8.000000
  0.062500  0.000000  0.437500      4.000000
  0.187500  0.000000  0.437500      4.000000
  0.312500  0.000000  0.437500      4.000000
  0.437500  0.000000  0.437500      4.000000
  0.062500  0.333333  0.437500      8.000000
  0.187500  0.333333  0.437500      8.000000
  0.312500  0.333333  0.437500      8.000000
  0.437500  0.333333  0.437500      8.000000
 
 Following cartesian coordinates:
            Coordinates               Weight
  0.007587  0.000000  0.007016      4.000000
  0.022760  0.000000  0.007016      4.000000
  0.037933  0.000000  0.007016      4.000000
  0.053106  0.000000  0.007016      4.000000
  0.007587  0.028668  0.007016      8.000000
  0.022760  0.028668  0.007016      8.000000
  0.037933  0.028668  0.007016      8.000000
  0.053106  0.028668  0.007016      8.000000
  0.007587  0.000000  0.021047      4.000000
  0.022760  0.000000  0.021047      4.000000
  0.037933  0.000000  0.021047      4.000000
  0.053106  0.000000  0.021047      4.000000
  0.007587  0.028668  0.021047      8.000000
  0.022760  0.028668  0.021047      8.000000
  0.037933  0.028668  0.021047      8.000000
  0.053106  0.028668  0.021047      8.000000
  0.007587  0.000000  0.035079      4.000000
  0.022760  0.000000  0.035079      4.000000
  0.037933  0.000000  0.035079      4.000000
  0.053106  0.000000  0.035079      4.000000
  0.007587  0.028668  0.035079      8.000000
  0.022760  0.028668  0.035079      8.000000
  0.037933  0.028668  0.035079      8.000000
  0.053106  0.028668  0.035079      8.000000
  0.007587  0.000000  0.049110      4.000000
  0.022760  0.000000  0.049110      4.000000
  0.037933  0.000000  0.049110      4.000000
  0.053106  0.000000  0.049110      4.000000
  0.007587  0.028668  0.049110      8.000000
  0.022760  0.028668  0.049110      8.000000
  0.037933  0.028668  0.049110      8.000000
  0.053106  0.028668  0.049110      8.000000
 
 
 Subroutine IBZKPT_HF returns following result:
 ==============================================
 
 Found    192 k-points in 1st BZ
 the following    192 k-points will be used (e.g. in the exchange kernel)
 Following reciprocal coordinates:   # in IRBZ
  0.062500  0.000000  0.062500    0.00520833   1 t-inv F
  0.187500  0.000000  0.062500    0.00520833   2 t-inv F
  0.312500  0.000000  0.062500    0.00520833   3 t-inv F
  0.437500  0.000000  0.062500    0.00520833   4 t-inv F
  0.062500  0.333333  0.062500    0.00520833   5 t-inv F
  0.187500  0.333333  0.062500    0.00520833   6 t-inv F
  0.312500  0.333333  0.062500    0.00520833   7 t-inv F
  0.437500  0.333333  0.062500    0.00520833   8 t-inv F
  0.062500  0.000000  0.187500    0.00520833   9 t-inv F
  0.187500  0.000000  0.187500    0.00520833  10 t-inv F
  0.312500  0.000000  0.187500    0.00520833  11 t-inv F
  0.437500  0.000000  0.187500    0.00520833  12 t-inv F
  0.062500  0.333333  0.187500    0.00520833  13 t-inv F
  0.187500  0.333333  0.187500    0.00520833  14 t-inv F
  0.312500  0.333333  0.187500    0.00520833  15 t-inv F
  0.437500  0.333333  0.187500    0.00520833  16 t-inv F
  0.062500  0.000000  0.312500    0.00520833  17 t-inv F
  0.187500  0.000000  0.312500    0.00520833  18 t-inv F
  0.312500  0.000000  0.312500    0.00520833  19 t-inv F
  0.437500  0.000000  0.312500    0.00520833  20 t-inv F
  0.062500  0.333333  0.312500    0.00520833  21 t-inv F
  0.187500  0.333333  0.312500    0.00520833  22 t-inv F
  0.312500  0.333333  0.312500    0.00520833  23 t-inv F
  0.437500  0.333333  0.312500    0.00520833  24 t-inv F
  0.062500  0.000000  0.437500    0.00520833  25 t-inv F
  0.187500  0.000000  0.437500    0.00520833  26 t-inv F
  0.312500  0.000000  0.437500    0.00520833  27 t-inv F
  0.437500  0.000000  0.437500    0.00520833  28 t-inv F
  0.062500  0.333333  0.437500    0.00520833  29 t-inv F
  0.187500  0.333333  0.437500    0.00520833  30 t-inv F
  0.312500  0.333333  0.437500    0.00520833  31 t-inv F
  0.437500  0.333333  0.437500    0.00520833  32 t-inv F
 -0.062500 -0.000000 -0.062500    0.00520833   1 t-inv F
 -0.062500 -0.000000  0.062500    0.00520833   1 t-inv F spinflp
  0.062500  0.000000 -0.062500    0.00520833   1 t-inv F spinflp
 -0.187500 -0.000000 -0.062500    0.00520833   2 t-inv F
 -0.187500 -0.000000  0.062500    0.00520833   2 t-inv F spinflp
  0.187500  0.000000 -0.062500    0.00520833   2 t-inv F spinflp
 -0.312500 -0.000000 -0.062500    0.00520833   3 t-inv F
 -0.312500 -0.000000  0.062500    0.00520833   3 t-inv F spinflp
  0.312500  0.000000 -0.062500    0.00520833   3 t-inv F spinflp
 -0.437500 -0.000000 -0.062500    0.00520833   4 t-inv F
 -0.437500 -0.000000  0.062500    0.00520833   4 t-inv F spinflp
  0.437500  0.000000 -0.062500    0.00520833   4 t-inv F spinflp
 -0.062500 -0.333333 -0.062500    0.00520833   5 t-inv F
 -0.062500  0.333333 -0.062500    0.00520833   5 t-inv F spinflp
  0.062500 -0.333333  0.062500    0.00520833   5 t-inv F spinflp
 -0.062500 -0.333333  0.062500    0.00520833   5 t-inv F spinflp
  0.062500  0.333333 -0.062500    0.00520833   5 t-inv F spinflp
  0.062500 -0.333333 -0.062500    0.00520833   5 t-inv F
 -0.062500  0.333333  0.062500    0.00520833   5 t-inv F
 -0.187500 -0.333333 -0.062500    0.00520833   6 t-inv F
 -0.187500  0.333333 -0.062500    0.00520833   6 t-inv F spinflp
  0.187500 -0.333333  0.062500    0.00520833   6 t-inv F spinflp
 -0.187500 -0.333333  0.062500    0.00520833   6 t-inv F spinflp
  0.187500  0.333333 -0.062500    0.00520833   6 t-inv F spinflp
  0.187500 -0.333333 -0.062500    0.00520833   6 t-inv F
 -0.187500  0.333333  0.062500    0.00520833   6 t-inv F
 -0.312500 -0.333333 -0.062500    0.00520833   7 t-inv F
 -0.312500  0.333333 -0.062500    0.00520833   7 t-inv F spinflp
  0.312500 -0.333333  0.062500    0.00520833   7 t-inv F spinflp
 -0.312500 -0.333333  0.062500    0.00520833   7 t-inv F spinflp
  0.312500  0.333333 -0.062500    0.00520833   7 t-inv F spinflp
  0.312500 -0.333333 -0.062500    0.00520833   7 t-inv F
 -0.312500  0.333333  0.062500    0.00520833   7 t-inv F
 -0.437500 -0.333333 -0.062500    0.00520833   8 t-inv F
 -0.437500  0.333333 -0.062500    0.00520833   8 t-inv F spinflp
  0.437500 -0.333333  0.062500    0.00520833   8 t-inv F spinflp
 -0.437500 -0.333333  0.062500    0.00520833   8 t-inv F spinflp
  0.437500  0.333333 -0.062500    0.00520833   8 t-inv F spinflp
  0.437500 -0.333333 -0.062500    0.00520833   8 t-inv F
 -0.437500  0.333333  0.062500    0.00520833   8 t-inv F
 -0.062500 -0.000000 -0.187500    0.00520833   9 t-inv F
 -0.062500 -0.000000  0.187500    0.00520833   9 t-inv F spinflp
  0.062500  0.000000 -0.187500    0.00520833   9 t-inv F spinflp
 -0.187500 -0.000000 -0.187500    0.00520833  10 t-inv F
 -0.187500 -0.000000  0.187500    0.00520833  10 t-inv F spinflp
  0.187500  0.000000 -0.187500    0.00520833  10 t-inv F spinflp
 -0.312500 -0.000000 -0.187500    0.00520833  11 t-inv F
 -0.312500 -0.000000  0.187500    0.00520833  11 t-inv F spinflp
  0.312500  0.000000 -0.187500    0.00520833  11 t-inv F spinflp
 -0.437500 -0.000000 -0.187500    0.00520833  12 t-inv F
 -0.437500 -0.000000  0.187500    0.00520833  12 t-inv F spinflp
  0.437500  0.000000 -0.187500    0.00520833  12 t-inv F spinflp
 -0.062500 -0.333333 -0.187500    0.00520833  13 t-inv F
 -0.062500  0.333333 -0.187500    0.00520833  13 t-inv F spinflp
  0.062500 -0.333333  0.187500    0.00520833  13 t-inv F spinflp
 -0.062500 -0.333333  0.187500    0.00520833  13 t-inv F spinflp
  0.062500  0.333333 -0.187500    0.00520833  13 t-inv F spinflp
  0.062500 -0.333333 -0.187500    0.00520833  13 t-inv F
 -0.062500  0.333333  0.187500    0.00520833  13 t-inv F
 -0.187500 -0.333333 -0.187500    0.00520833  14 t-inv F
 -0.187500  0.333333 -0.187500    0.00520833  14 t-inv F spinflp
  0.187500 -0.333333  0.187500    0.00520833  14 t-inv F spinflp
 -0.187500 -0.333333  0.187500    0.00520833  14 t-inv F spinflp
  0.187500  0.333333 -0.187500    0.00520833  14 t-inv F spinflp
  0.187500 -0.333333 -0.187500    0.00520833  14 t-inv F
 -0.187500  0.333333  0.187500    0.00520833  14 t-inv F
 -0.312500 -0.333333 -0.187500    0.00520833  15 t-inv F
 -0.312500  0.333333 -0.187500    0.00520833  15 t-inv F spinflp
  0.312500 -0.333333  0.187500    0.00520833  15 t-inv F spinflp
 -0.312500 -0.333333  0.187500    0.00520833  15 t-inv F spinflp
  0.312500  0.333333 -0.187500    0.00520833  15 t-inv F spinflp
  0.312500 -0.333333 -0.187500    0.00520833  15 t-inv F
 -0.312500  0.333333  0.187500    0.00520833  15 t-inv F
 -0.437500 -0.333333 -0.187500    0.00520833  16 t-inv F
 -0.437500  0.333333 -0.187500    0.00520833  16 t-inv F spinflp
  0.437500 -0.333333  0.187500    0.00520833  16 t-inv F spinflp
 -0.437500 -0.333333  0.187500    0.00520833  16 t-inv F spinflp
  0.437500  0.333333 -0.187500    0.00520833  16 t-inv F spinflp
  0.437500 -0.333333 -0.187500    0.00520833  16 t-inv F
 -0.437500  0.333333  0.187500    0.00520833  16 t-inv F
 -0.062500 -0.000000 -0.312500    0.00520833  17 t-inv F
 -0.062500 -0.000000  0.312500    0.00520833  17 t-inv F spinflp
  0.062500  0.000000 -0.312500    0.00520833  17 t-inv F spinflp
 -0.187500 -0.000000 -0.312500    0.00520833  18 t-inv F
 -0.187500 -0.000000  0.312500    0.00520833  18 t-inv F spinflp
  0.187500  0.000000 -0.312500    0.00520833  18 t-inv F spinflp
 -0.312500 -0.000000 -0.312500    0.00520833  19 t-inv F
 -0.312500 -0.000000  0.312500    0.00520833  19 t-inv F spinflp
  0.312500  0.000000 -0.312500    0.00520833  19 t-inv F spinflp
 -0.437500 -0.000000 -0.312500    0.00520833  20 t-inv F
 -0.437500 -0.000000  0.312500    0.00520833  20 t-inv F spinflp
  0.437500  0.000000 -0.312500    0.00520833  20 t-inv F spinflp
 -0.062500 -0.333333 -0.312500    0.00520833  21 t-inv F
 -0.062500  0.333333 -0.312500    0.00520833  21 t-inv F spinflp
  0.062500 -0.333333  0.312500    0.00520833  21 t-inv F spinflp
 -0.062500 -0.333333  0.312500    0.00520833  21 t-inv F spinflp
  0.062500  0.333333 -0.312500    0.00520833  21 t-inv F spinflp
  0.062500 -0.333333 -0.312500    0.00520833  21 t-inv F
 -0.062500  0.333333  0.312500    0.00520833  21 t-inv F
 -0.187500 -0.333333 -0.312500    0.00520833  22 t-inv F
 -0.187500  0.333333 -0.312500    0.00520833  22 t-inv F spinflp
  0.187500 -0.333333  0.312500    0.00520833  22 t-inv F spinflp
 -0.187500 -0.333333  0.312500    0.00520833  22 t-inv F spinflp
  0.187500  0.333333 -0.312500    0.00520833  22 t-inv F spinflp
  0.187500 -0.333333 -0.312500    0.00520833  22 t-inv F
 -0.187500  0.333333  0.312500    0.00520833  22 t-inv F
 -0.312500 -0.333333 -0.312500    0.00520833  23 t-inv F
 -0.312500  0.333333 -0.312500    0.00520833  23 t-inv F spinflp
  0.312500 -0.333333  0.312500    0.00520833  23 t-inv F spinflp
 -0.312500 -0.333333  0.312500    0.00520833  23 t-inv F spinflp
  0.312500  0.333333 -0.312500    0.00520833  23 t-inv F spinflp
  0.312500 -0.333333 -0.312500    0.00520833  23 t-inv F
 -0.312500  0.333333  0.312500    0.00520833  23 t-inv F
 -0.437500 -0.333333 -0.312500    0.00520833  24 t-inv F
 -0.437500  0.333333 -0.312500    0.00520833  24 t-inv F spinflp
  0.437500 -0.333333  0.312500    0.00520833  24 t-inv F spinflp
 -0.437500 -0.333333  0.312500    0.00520833  24 t-inv F spinflp
  0.437500  0.333333 -0.312500    0.00520833  24 t-inv F spinflp
  0.437500 -0.333333 -0.312500    0.00520833  24 t-inv F
 -0.437500  0.333333  0.312500    0.00520833  24 t-inv F
 -0.062500 -0.000000 -0.437500    0.00520833  25 t-inv F
 -0.062500 -0.000000  0.437500    0.00520833  25 t-inv F spinflp
  0.062500  0.000000 -0.437500    0.00520833  25 t-inv F spinflp
 -0.187500 -0.000000 -0.437500    0.00520833  26 t-inv F
 -0.187500 -0.000000  0.437500    0.00520833  26 t-inv F spinflp
  0.187500  0.000000 -0.437500    0.00520833  26 t-inv F spinflp
 -0.312500 -0.000000 -0.437500    0.00520833  27 t-inv F
 -0.312500 -0.000000  0.437500    0.00520833  27 t-inv F spinflp
  0.312500  0.000000 -0.437500    0.00520833  27 t-inv F spinflp
 -0.437500 -0.000000 -0.437500    0.00520833  28 t-inv F
 -0.437500 -0.000000  0.437500    0.00520833  28 t-inv F spinflp
  0.437500  0.000000 -0.437500    0.00520833  28 t-inv F spinflp
 -0.062500 -0.333333 -0.437500    0.00520833  29 t-inv F
 -0.062500  0.333333 -0.437500    0.00520833  29 t-inv F spinflp
  0.062500 -0.333333  0.437500    0.00520833  29 t-inv F spinflp
 -0.062500 -0.333333  0.437500    0.00520833  29 t-inv F spinflp
  0.062500  0.333333 -0.437500    0.00520833  29 t-inv F spinflp
  0.062500 -0.333333 -0.437500    0.00520833  29 t-inv F
 -0.062500  0.333333  0.437500    0.00520833  29 t-inv F
 -0.187500 -0.333333 -0.437500    0.00520833  30 t-inv F
 -0.187500  0.333333 -0.437500    0.00520833  30 t-inv F spinflp
  0.187500 -0.333333  0.437500    0.00520833  30 t-inv F spinflp
 -0.187500 -0.333333  0.437500    0.00520833  30 t-inv F spinflp
  0.187500  0.333333 -0.437500    0.00520833  30 t-inv F spinflp
  0.187500 -0.333333 -0.437500    0.00520833  30 t-inv F
 -0.187500  0.333333  0.437500    0.00520833  30 t-inv F
 -0.312500 -0.333333 -0.437500    0.00520833  31 t-inv F
 -0.312500  0.333333 -0.437500    0.00520833  31 t-inv F spinflp
  0.312500 -0.333333  0.437500    0.00520833  31 t-inv F spinflp
 -0.312500 -0.333333  0.437500    0.00520833  31 t-inv F spinflp
  0.312500  0.333333 -0.437500    0.00520833  31 t-inv F spinflp
  0.312500 -0.333333 -0.437500    0.00520833  31 t-inv F
 -0.312500  0.333333  0.437500    0.00520833  31 t-inv F
 -0.437500 -0.333333 -0.437500    0.00520833  32 t-inv F
 -0.437500  0.333333 -0.437500    0.00520833  32 t-inv F spinflp
  0.437500 -0.333333  0.437500    0.00520833  32 t-inv F spinflp
 -0.437500 -0.333333  0.437500    0.00520833  32 t-inv F spinflp
  0.437500  0.333333 -0.437500    0.00520833  32 t-inv F spinflp
  0.437500 -0.333333 -0.437500    0.00520833  32 t-inv F
 -0.437500  0.333333  0.437500    0.00520833  32 t-inv F


--------------------------------------------------------------------------------------------------------




 Dimension of arrays:
   k-points           NKPTS =     32   k-points in BZ     NKDIM =     32   number of bands    NBANDS=    240
   number of dos      NEDOS =    301   number of ions     NIONS =     92
   non local maximal  LDIM  =      6   non local SUM 2l+1 LMDIM =     18
   total plane-waves  NPLWV = 806400
   max r-space proj   IRMAX =      1   max aug-charges    IRDMAX= 245227
   dimension x,y,z NGX =    80 NGY =  112 NGZ =   90
   dimension x,y,z NGXF=   160 NGYF=  224 NGZF=  180
   support grid    NGXF=   320 NGYF=  448 NGZF=  360
   ions per type =               4  16  36  12  24
   NGX,Y,Z   is equivalent  to a cutoff of  16.14, 16.01, 16.80 a.u.
   NGXF,Y,Z  is equivalent  to a cutoff of  32.29, 32.03, 33.59 a.u.

 SYSTEM =  unknown system                          
 POSCAR =  crystal                                 

 Startparameter for this run:
   NWRITE =      2    write-flag & timer
   PREC   = accura    normal or accurate (medium, high low for compatibility)
   ISTART =      1    job   : 0-new  1-cont  2-samecut
   ICHARG =     11    charge: 1-file 2-atom 10-const
   ISPIN  =      2    spin polarized calculation?
   LNONCOLLINEAR =      F non collinear calculations
   LSORBIT =      F    spin-orbit coupling
   INIWAV =      1    electr: 0-lowe 1-rand  2-diag
   LASPH  =      T    aspherical Exc in radial PAW
 Electronic Relaxation 1
   ENCUT  =  850.0 eV  62.47 Ry    7.90 a.u.  19.58 27.64 21.18*2*pi/ulx,y,z
   ENINI  =  850.0     initial cutoff
   ENAUG  = 1500.0 eV  augmentation charge cutoff
   NELM   =     50;   NELMIN=  6; NELMDL= -8     # of ELM steps 
   EDIFF  = 0.1E-09   stopping-criterion for ELM
   LREAL  =      F    real-space projection
   NLSPLINE    = F    spline interpolate recip. space projectors
   LCOMPAT=      F    compatible to vasp.4.4
   GGA_COMPAT  = F    GGA compatible to vasp.4.4-vasp.4.6
   LMAXPAW     = -100 max onsite density
   LMAXMIX     =    4 max onsite mixed and CHGCAR
   VOSKOWN=      0    Vosko Wilk Nusair interpolation
   ROPT   =    0.00000   0.00000   0.00000   0.00000
   ROPT   =    0.00000
 Ionic relaxation
   EDIFFG = -.5E-02   stopping-criterion for IOM
   NSW    =      0    number of steps for IOM
   NBLOCK =      1;   KBLOCK =      1    inner block; outer block 
   IBRION =     -1    ionic relax: 0-MD 1-quasi-New 2-CG
   NFREE  =      0    steps in history (QN), initial steepest desc. (CG)
   ISIF   =      3    stress and relaxation
   IWAVPR =     10    prediction:  0-non 1-charg 2-wave 3-comb
   ISYM   =      2    0-nonsym 1-usesym 2-fastsym
   LCORR  =      T    Harris-Foulkes like correction to forces

   POTIM  = 0.1000    time-step for ionic-motion
   TEIN   =    0.0    initial temperature
   TEBEG  =    0.0;   TEEND  =   0.0 temperature during run
   SMASS  =  -3.00    Nose mass-parameter (am)
   estimated Nose-frequenzy (Omega)   =  0.10E-29 period in steps = 0.63E+47 mass=  -0.155E-26a.u.
   SCALEE = 1.0000    scale energy and forces
   NPACO  =    256;   APACO  = 10.0  distance and # of slots for P.C.
   PSTRESS=    0.0 pullay stress

  Mass of Ions in am
   POMASS =  58.69 12.01  1.00 14.00 16.00
  Ionic Valenz
   ZVAL   =  10.00  4.00  1.00  5.00  6.00
  Atomic Wigner-Seitz radii
   RWIGS  =  -1.00 -1.00 -1.00 -1.00 -1.00
  virtual crystal weights 
   VCA    =   1.00  1.00  1.00  1.00  1.00
   NELECT =     344.0000    total number of electrons
   NUPDOWN=      -1.0000    fix difference up-down

 DOS related values:
   EMIN   =  10.00;   EMAX   =-10.00  energy-range for DOS
   EFERMI =   0.00
   ISMEAR =     0;   SIGMA  =   0.05  broadening in eV -4-tet -1-fermi 0-gaus

 Electronic relaxation 2 (details)
   IALGO  =     38    algorithm
   LDIAG  =      T    sub-space diagonalisation (order eigenvalues)
   LSUBROT=      F    optimize rotation matrix (better conditioning)
   TURBO    =      0    0=normal 1=particle mesh
   IRESTART =      0    0=no restart 2=restart with 2 vectors
   NREBOOT  =      0    no. of reboots
   NMIN     =      0    reboot dimension
   EREF     =   0.00    reference energy to select bands
   IMIX   =      4    mixing-type and parameters
     AMIX     =   0.10;   BMIX     =  1.00
     AMIX_MAG =   0.40;   BMIX_MAG =  1.00
     AMIN     =   0.10
     WC   =   100.;   INIMIX=   1;  MIXPRE=   1;  MAXMIX= -45

 Intra band minimization:
   WEIMIN = 0.0000     energy-eigenvalue tresh-hold
   EBREAK =  0.10E-12  absolut break condition
   DEPER  =   0.30     relativ break condition  

   TIME   =   0.40     timestep for ELM

  volume/ion in A,a.u.               =       9.28        62.59
  Fermi-wavevector in a.u.,A,eV,Ry     =   1.209358  2.285355 19.899147  1.462546
  Thomas-Fermi vector in A             =   2.344938
 
 Write flags
   LWAVE        =      F    write WAVECAR
   LDOWNSAMPLE  =      F    k-point downsampling of WAVECAR
   LCHARG       =      F    write CHGCAR
   LVTOT        =      F    write LOCPOT, total local potential
   LVHAR        =      F    write LOCPOT, Hartree potential only
   LELF         =      F    write electronic localiz. function (ELF)
   LORBIT       =     11    0 simple, 1 ext, 2 COOP (PROOUT), +10 PAW based schemes


 Dipole corrections
   LMONO  =      F    monopole corrections only (constant potential shift)
   LDIPOL =      F    correct potential (dipole corrections)
   IDIPOL =      0    1-x, 2-y, 3-z, 4-all directions 
   EPSILON=  1.0000000 bulk dielectric constant

 Exchange correlation treatment:
   GGA     =    --    GGA type
   LEXCH   =     8    internal setting for exchange type
   LIBXC   =     F    Libxc                    
   VOSKOWN =     0    Vosko Wilk Nusair interpolation
   LHFCALC =     F    Hartree Fock is set to
   LHFONE  =     F    Hartree Fock one center treatment
   AEXX    =    0.0000 exact exchange contribution

 Linear response parameters
   LEPSILON=     F    determine dielectric tensor
   LRPA    =     F    only Hartree local field effects (RPA)
   LNABLA  =     F    use nabla operator in PAW spheres
   LVEL    =     F    velocity operator in full k-point grid
   CSHIFT  =0.1000    complex shift for real part using Kramers Kronig
   OMEGAMAX=  -1.0    maximum frequency
   DEG_THRESHOLD= 0.2000000E-02 threshold for treating states as degnerate
   RTIME   =   -0.100 relaxation time in fs
  (WPLASMAI=    0.000 imaginary part of plasma frequency in eV, 0.658/RTIME)
   DFIELD  = 0.0000000 0.0000000 0.0000000 field for delta impulse in time
 
  Optional k-point grid parameters
   LKPOINTS_OPT  =     F    use optional k-point grid
   KPOINTS_OPT_MODE=     1    mode for optional k-point grid
 
 Orbital magnetization related:
   ORBITALMAG=     F  switch on orbital magnetization
   LCHIMAG   =     F  perturbation theory with respect to B field
   DQ        =  0.001000  dq finite difference perturbation B field
   LLRAUG    =     F  two centre corrections for induced B field

 PEAD related settings:
   LPEAD      =     T    switch on PEAD
   IPEAD      =     4    finite difference order for dpsi/dk
   LCALCPOL   =     T    calculate macroscopic polarization
   LCALCEPS   =     F    calculate dielectric tensor
   EFIELD_PEAD=    0.0000    0.0000    0.0000
   SKIP_EDOTP =     F
   LRPA       =     F
   SKIP_SCF   =     F


--------------------------------------------------------------------------------------------------------


 Static calculation
 charge density and potential remain constant during run
 spin polarized calculation
 Variant of blocked Davidson
 Davidson routine will perform the subspace rotation
 perform sub-space diagonalisation
    after iterative eigenvector-optimisation
 no mixing
 using additional bands            68
 reciprocal scheme for non local part
 use partial core corrections
 calculate Harris-corrections to forces 
   (improved forces if not selfconsistent)
 use gradient corrections 
 WARNING: stress and forces are not correct
  (second derivative of E(xc) not defined)
 use of overlap-Matrix (Vanderbilt PP)
 Gauss-broadening in eV      SIGMA  =   0.05


--------------------------------------------------------------------------------------------------------


  energy-cutoff  :      850.00
  volume of cell :      853.33
      direct lattice vectors                 reciprocal lattice vectors
     8.238176394  0.000000000 -0.000000000     0.121386087 -0.000000000  0.000000000
     0.000000000 11.627378621  0.000000000    -0.000000000  0.086003908 -0.000000000
    -0.000000000  0.000000000  8.908522939     0.000000000 -0.000000000  0.112252054

  length of vectors
     8.238176394 11.627378621  8.908522939     0.121386087  0.086003908  0.112252054


 
 old parameters found on file WAVECAR:
  energy-cutoff  :      850.00
  volume of cell :      853.33
      direct lattice vectors                 reciprocal lattice vectors
     8.238176394  0.000000000 -0.000000000     0.121386087 -0.000000000  0.000000000
     0.000000000 11.627378621  0.000000000    -0.000000000  0.086003908 -0.000000000
    -0.000000000  0.000000000  8.908522939     0.000000000 -0.000000000  0.112252054

  length of vectors

 
 k-points in units of 2pi/SCALE and weight: K-Spacing Value to Generate K-Mesh: 0.04
   0.00758663  0.00000000  0.00701575       0.021
   0.02275989  0.00000000  0.00701575       0.021
   0.03793315  0.00000000  0.00701575       0.021
   0.05310641  0.00000000  0.00701575       0.021
   0.00758663  0.02866797  0.00701575       0.042
   0.02275989  0.02866797  0.00701575       0.042
   0.03793315  0.02866797  0.00701575       0.042
   0.05310641  0.02866797  0.00701575       0.042
   0.00758663  0.00000000  0.02104726       0.021
   0.02275989  0.00000000  0.02104726       0.021
   0.03793315  0.00000000  0.02104726       0.021
   0.05310641  0.00000000  0.02104726       0.021
   0.00758663  0.02866797  0.02104726       0.042
   0.02275989  0.02866797  0.02104726       0.042
   0.03793315  0.02866797  0.02104726       0.042
   0.05310641  0.02866797  0.02104726       0.042
   0.00758663  0.00000000  0.03507877       0.021
   0.02275989  0.00000000  0.03507877       0.021
   0.03793315  0.00000000  0.03507877       0.021
   0.05310641  0.00000000  0.03507877       0.021
   0.00758663  0.02866797  0.03507877       0.042
   0.02275989  0.02866797  0.03507877       0.042
   0.03793315  0.02866797  0.03507877       0.042
   0.05310641  0.02866797  0.03507877       0.042
   0.00758663  0.00000000  0.04911027       0.021
   0.02275989  0.00000000  0.04911027       0.021
   0.03793315  0.00000000  0.04911027       0.021
   0.05310641  0.00000000  0.04911027       0.021
   0.00758663  0.02866797  0.04911027       0.042
   0.02275989  0.02866797  0.04911027       0.042
   0.03793315  0.02866797  0.04911027       0.042
   0.05310641  0.02866797  0.04911027       0.042
 
 k-points in reciprocal lattice and weights: K-Spacing Value to Generate K-Mesh: 0.04
   0.06250000  0.00000000  0.06250000       0.021
   0.18750000  0.00000000  0.06250000       0.021
   0.31250000  0.00000000  0.06250000       0.021
   0.43750000  0.00000000  0.06250000       0.021
   0.06250000  0.33333333  0.06250000       0.042
   0.18750000  0.33333333  0.06250000       0.042
   0.31250000  0.33333333  0.06250000       0.042
   0.43750000  0.33333333  0.06250000       0.042
   0.06250000  0.00000000  0.18750000       0.021
   0.18750000  0.00000000  0.18750000       0.021
   0.31250000  0.00000000  0.18750000       0.021
   0.43750000  0.00000000  0.18750000       0.021
   0.06250000  0.33333333  0.18750000       0.042
   0.18750000  0.33333333  0.18750000       0.042
   0.31250000  0.33333333  0.18750000       0.042
   0.43750000  0.33333333  0.18750000       0.042
   0.06250000  0.00000000  0.31250000       0.021
   0.18750000  0.00000000  0.31250000       0.021
   0.31250000  0.00000000  0.31250000       0.021
   0.43750000  0.00000000  0.31250000       0.021
   0.06250000  0.33333333  0.31250000       0.042
   0.18750000  0.33333333  0.31250000       0.042
   0.31250000  0.33333333  0.31250000       0.042
   0.43750000  0.33333333  0.31250000       0.042
   0.06250000  0.00000000  0.43750000       0.021
   0.18750000  0.00000000  0.43750000       0.021
   0.31250000  0.00000000  0.43750000       0.021
   0.43750000  0.00000000  0.43750000       0.021
   0.06250000  0.33333333  0.43750000       0.042
   0.18750000  0.33333333  0.43750000       0.042
   0.31250000  0.33333333  0.43750000       0.042
   0.43750000  0.33333333  0.43750000       0.042
 
 position of ions in fractional coordinates (direct lattice) 
   0.26236919  0.25000000  0.25000000
   0.23763081  0.75000000  0.25000000
   0.73763081  0.75000000  0.75000000
   0.76236919  0.25000000  0.75000000
   0.25000000  0.50000000  0.30273839
   0.25000000  0.00000000  0.19726161
   0.75000000  0.50000000  0.69726161
   0.75000000  0.00000000  0.80273839
   0.53176129  0.22184764  0.48393803
   0.96823871  0.77815236  0.48393803
   0.53176129  0.27815236  0.01606197
   0.96823871  0.72184764  0.01606197
   0.46823871  0.77815236  0.51606197
   0.03176129  0.22184764  0.51606197
   0.46823871  0.72184764  0.98393803
   0.03176129  0.27815236  0.98393803
   0.25000000  0.50000000  0.75890919
   0.25000000  0.00000000  0.74109081
   0.75000000  0.50000000  0.24109081
   0.75000000  0.00000000  0.25890919
   0.25000000  0.50000000  0.17975034
   0.25000000  0.00000000  0.32024966
   0.75000000  0.50000000  0.82024966
   0.75000000  0.00000000  0.67975034
   0.42849736  0.37887406  0.74307694
   0.07150264  0.62112594  0.74307694
   0.42849736  0.12112594  0.75692306
   0.07150264  0.87887406  0.75692306
   0.57150264  0.62112594  0.25692306
   0.92849736  0.37887406  0.25692306
   0.57150264  0.87887406  0.24307694
   0.92849736  0.12112594  0.24307694
   0.33268109  0.41819671  0.57014840
   0.16731891  0.58180329  0.57014840
   0.33268109  0.08180329  0.92985160
   0.16731891  0.91819671  0.92985160
   0.66731891  0.58180329  0.42985160
   0.83268109  0.41819671  0.42985160
   0.66731891  0.91819671  0.07014840
   0.83268109  0.08180329  0.07014840
   0.60295564  0.29105020  0.42993236
   0.89704436  0.70894980  0.42993236
   0.60295564  0.20894980  0.07006764
   0.89704436  0.79105020  0.07006764
   0.39704436  0.70894980  0.57006764
   0.10295564  0.29105020  0.57006764
   0.39704436  0.79105020  0.92993236
   0.10295564  0.20894980  0.92993236
   0.18589693  0.56128774  0.96654613
   0.31410307  0.43871226  0.96654613
   0.18589693  0.93871226  0.53345387
   0.31410307  0.06128774  0.53345387
   0.81410307  0.43871226  0.03345387
   0.68589693  0.56128774  0.03345387
   0.81410307  0.06128774  0.46654613
   0.68589693  0.93871226  0.46654613
   0.34602353  0.42681425  0.68402469
   0.15397647  0.57318575  0.68402469
   0.34602353  0.07318575  0.81597531
   0.15397647  0.92681425  0.81597531
   0.65397647  0.57318575  0.31597531
   0.84602353  0.42681425  0.31597531
   0.65397647  0.92681425  0.18402469
   0.84602353  0.07318575  0.18402469
   0.25000000  0.50000000  0.90854124
   0.25000000  0.00000000  0.59145876
   0.75000000  0.50000000  0.09145876
   0.75000000  0.00000000  0.40854124
   0.26367201  0.40414367  0.37017036
   0.23632799  0.59585633  0.37017036
   0.26367201  0.09585633  0.12982964
   0.23632799  0.90414367  0.12982964
   0.73632799  0.59585633  0.62982964
   0.76367201  0.40414367  0.62982964
   0.73632799  0.90414367  0.87017036
   0.76367201  0.09585633  0.87017036
   0.41269121  0.17857552  0.41310490
   0.08730879  0.82142448  0.41310490
   0.41269121  0.32142448  0.08689510
   0.08730879  0.67857552  0.08689510
   0.58730879  0.82142448  0.58689510
   0.91269121  0.17857552  0.58689510
   0.58730879  0.67857552  0.91310490
   0.91269121  0.32142448  0.91310490
   0.57172856  0.18900728  0.61492999
   0.92827144  0.81099272  0.61492999
   0.57172856  0.31099272  0.88507001
   0.92827144  0.68900728  0.88507001
   0.42827144  0.81099272  0.38507001
   0.07172856  0.18900728  0.38507001
   0.42827144  0.68900728  0.11492999
   0.07172856  0.31099272  0.11492999
 
 position of ions in cartesian coordinates  (Angst):
   2.16144365  2.90684466  2.22713073
   1.95764455  8.72053397  2.22713073
   6.07673275  8.72053397  6.68139220
   6.28053184  2.90684466  6.68139220
   2.05954410  5.81368931  2.69695185
   2.05954410  0.00000000  1.75730962
   6.17863230  5.81368931  6.21157109
   6.17863230  0.00000000  7.15121332
   4.38074329  2.57950645  4.31117305
   7.97652130  9.04787217  4.31117305
   4.38074329  3.23418286  0.14308842
   7.97652130  8.39319576  0.14308842
   3.85743311  9.04787217  4.59734989
   0.26165509  2.57950645  4.59734989
   3.85743311  8.39319576  8.76543452
   0.26165509  3.23418286  8.76543452
   2.05954410  5.81368931  6.76075993
   2.05954410  0.00000000  6.60202448
   6.17863230  5.81368931  2.14776301
   6.17863230  0.00000000  2.30649846
   2.05954410  5.81368931  1.60131001
   2.05954410  0.00000000  2.85295146
   6.17863230  5.81368931  7.30721293
   6.17863230  0.00000000  6.05557148
   3.53003680  4.40531216  6.61971801
   0.58905140  7.22206646  6.61971801
   3.53003680  1.40837715  6.74306640
   0.58905140 10.21900147  6.74306640
   4.70813960  7.22206646  2.28880493
   7.64912499  4.40531216  2.28880493
   4.70813960 10.21900147  2.16545654
   7.64912499  1.40837715  2.16545654
   2.74068551  4.86253150  5.07918014
   1.37840269  6.76484712  5.07918014
   2.74068551  0.95115781  8.28360427
   1.37840269 10.67622082  8.28360427
   5.49749088  6.76484712  3.82934280
   6.85977371  4.86253150  3.82934280
   5.49749088 10.67622082  0.62491867
   6.85977371  0.95115781  0.62491867
   4.96725488  3.38415089  3.83006230
   7.39000971  8.24322773  3.83006230
   4.96725488  2.42953842  0.62419917
   7.39000971  9.19784020  0.62419917
   3.27092151  8.24322773  5.07846064
   0.84816669  3.38415089  5.07846064
   3.27092151  9.19784020  8.28432377
   0.84816669  2.42953842  8.28432377
   1.53145169  6.52630502  8.61049835
   2.58763651  5.10107360  8.61049835
   1.53145169 10.91476291  4.75228606
   2.58763651  0.71261571  4.75228606
   6.70672471  5.10107360  0.29802459
   5.65053988  6.52630502  0.29802459
   6.70672471  0.71261571  4.15623688
   5.65053988 10.91476291  4.15623688
   2.85060287  4.96273084  6.09364964
   1.26848532  6.66464778  6.09364964
   2.85060287  0.85095847  7.26913477
   1.26848532 10.77642015  7.26913477
   5.38757352  6.66464778  2.81487330
   6.96969107  4.96273084  2.81487330
   5.38757352 10.77642015  1.63938817
   6.96969107  0.85095847  1.63938817
   2.05954410  5.81368931  8.09376047
   2.05954410  0.00000000  5.26902394
   6.17863230  5.81368931  0.81476247
   6.17863230  0.00000000  3.63949900
   2.17217650  4.69913141  3.29767116
   1.94691170  6.92824721  3.29767116
   2.17217650  1.11455790  1.15659031
   1.94691170 10.51282073  1.15659031
   6.06599990  6.92824721  5.61085178
   6.29126469  4.69913141  5.61085178
   6.06599990 10.51282073  7.75193263
   6.29126469  1.11455790  7.75193263
   3.39982301  2.07636513  3.68015448
   0.71926519  9.55101349  3.68015448
   3.39982301  3.73732418  0.77410699
   0.71926519  7.89005444  0.77410699
   4.83835339  9.55101349  5.22836846
   7.51891120  2.07636513  5.22836846
   4.83835339  7.89005444  8.13441595
   7.51891120  3.73732418  8.13441595
   4.71000073  2.19765920  5.47811795
   7.64726387  9.42971942  5.47811795
   4.71000073  3.61603011  7.88466646
   7.64726387  8.01134851  7.88466646
   3.52817567  9.42971942  3.43040499
   0.59091253  2.19765920  3.43040499
   3.52817567  8.01134851  1.02385648
   0.59091253  3.61603011  1.02385648
 


--------------------------------------------------------------------------------------------------------


 k-point   1 :   0.0625 0.0000 0.0625  plane waves:   48003
 k-point   2 :   0.1875 0.0000 0.0625  plane waves:   48011
 k-point   3 :   0.3125 0.0000 0.0625  plane waves:   48034
 k-point   4 :   0.4375 0.0000 0.0625  plane waves:   48041
 k-point   5 :   0.0625 0.3333 0.0625  plane waves:   48044
 k-point   6 :   0.1875 0.3333 0.0625  plane waves:   48006
 k-point   7 :   0.3125 0.3333 0.0625  plane waves:   48016
 k-point   8 :   0.4375 0.3333 0.0625  plane waves:   48001
 k-point   9 :   0.0625 0.0000 0.1875  plane waves:   47997
 k-point  10 :   0.1875 0.0000 0.1875  plane waves:   48035
[...]
   0.304E+01 -.106E+03 -.150E+02   0.281E+02 0.127E+03 0.330E+02   -.310E+02 -.213E+02 -.179E+02   -.289E-02 0.609E-02 0.376E-03
   -.304E+01 0.106E+03 -.150E+02   -.281E+02 -.127E+03 0.330E+02   0.310E+02 0.213E+02 -.179E+02   0.289E-02 -.609E-02 0.376E-03
   0.304E+01 0.106E+03 0.150E+02   0.281E+02 -.127E+03 -.330E+02   -.310E+02 0.213E+02 0.179E+02   -.289E-02 -.609E-02 -.376E-03
   -.304E+01 -.106E+03 0.150E+02   -.281E+02 0.127E+03 -.330E+02   0.310E+02 -.213E+02 0.179E+02   0.289E-02 0.609E-02 -.376E-03
   0.678E+02 0.863E+02 -.491E+02   -.606E+02 -.103E+03 0.867E+02   -.713E+01 0.164E+02 -.375E+02   -.410E-02 0.297E-02 -.178E-02
   -.678E+02 -.863E+02 -.491E+02   0.606E+02 0.103E+03 0.867E+02   0.713E+01 -.164E+02 -.375E+02   0.410E-02 -.297E-02 -.178E-02
   0.678E+02 -.863E+02 0.491E+02   -.606E+02 0.103E+03 -.867E+02   -.713E+01 -.164E+02 0.375E+02   -.410E-02 -.297E-02 0.178E-02
   -.678E+02 0.863E+02 0.491E+02   0.606E+02 -.103E+03 -.867E+02   0.713E+01 0.164E+02 0.375E+02   0.410E-02 0.297E-02 0.178E-02
   -.678E+02 -.863E+02 0.491E+02   0.606E+02 0.103E+03 -.867E+02   0.713E+01 -.164E+02 0.375E+02   0.410E-02 -.297E-02 0.178E-02
   0.678E+02 0.863E+02 0.491E+02   -.606E+02 -.103E+03 -.867E+02   -.713E+01 0.164E+02 0.375E+02   -.410E-02 0.297E-02 0.178E-02
   -.678E+02 0.863E+02 -.491E+02   0.606E+02 -.103E+03 0.867E+02   0.713E+01 0.164E+02 -.375E+02   0.410E-02 0.297E-02 -.178E-02
   0.678E+02 -.863E+02 -.491E+02   -.606E+02 0.103E+03 0.867E+02   -.713E+01 -.164E+02 -.375E+02   -.410E-02 -.297E-02 -.178E-02
 -----------------------------------------------------------------------------------------------
   0.153E-08 0.915E-09 0.189E-09   -.128E-12 0.142E-13 -.142E-12   -.355E-14 0.107E-13 0.355E-13   -.520E-11 -.142E-09 -.503E-10
 
 
 POSITION                                       TOTAL-FORCE (eV/Angst)
 -----------------------------------------------------------------------------------
      2.16144      2.90684      2.22713         0.000135      0.000000      0.000000
      1.95764      8.72053      2.22713        -0.000135      0.000000     -0.000000
      6.07673      8.72053      6.68139        -0.000135     -0.000000     -0.000000
      6.28053      2.90684      6.68139         0.000135     -0.000000      0.000000
      2.05954      5.81369      2.69695        -0.000000      0.000000      0.001953
      2.05954      0.00000      1.75731        -0.000000     -0.000000     -0.001953
      6.17863      5.81369      6.21157        -0.000000      0.000000     -0.001953
      6.17863      0.00000      7.15121        -0.000000      0.000000      0.001953
      4.38074      2.57951      4.31117         0.000818     -0.001063     -0.000818
      7.97652      9.04787      4.31117        -0.000818      0.001063     -0.000818
      4.38074      3.23418      0.14309         0.000818      0.001063      0.000818
      7.97652      8.39320      0.14309        -0.000818     -0.001063      0.000818
      3.85743      9.04787      4.59735        -0.000818      0.001063      0.000818
      0.26166      2.57951      4.59735         0.000818     -0.001063      0.000818
      3.85743      8.39320      8.76543        -0.000818     -0.001063     -0.000818
      0.26166      3.23418      8.76543         0.000818      0.001063     -0.000818
      2.05954      5.81369      6.76076        -0.000000     -0.000000      0.004100
      2.05954      0.00000      6.60202        -0.000000      0.000000     -0.004100
      6.17863      5.81369      2.14776        -0.000000      0.000000     -0.004100
      6.17863      0.00000      2.30650        -0.000000      0.000000      0.004100
      2.05954      5.81369      1.60131        -0.000000     -0.000000      0.001279
      2.05954      0.00000      2.85295        -0.000000      0.000000     -0.001279
      6.17863      5.81369      7.30721        -0.000000      0.000000     -0.001279
      6.17863      0.00000      6.05557        -0.000000      0.000000      0.001279
      3.53004      4.40531      6.61972         0.000383     -0.000732     -0.000026
      0.58905      7.22207      6.61972        -0.000383      0.000732     -0.000026
      3.53004      1.40838      6.74307         0.000383      0.000732      0.000026
      0.58905     10.21900      6.74307        -0.000383     -0.000732      0.000026
      4.70814      7.22207      2.28880        -0.000383      0.000732      0.000026
      7.64912      4.40531      2.28880         0.000383     -0.000732      0.000026
      4.70814     10.21900      2.16546        -0.000383     -0.000732     -0.000026
      7.64912      1.40838      2.16546         0.000383      0.000732     -0.000026
      2.74069      4.86253      5.07918         0.000656     -0.000393      0.001284
      1.37840      6.76485      5.07918        -0.000656      0.000393      0.001284
      2.74069      0.95116      8.28360         0.000656      0.000393     -0.001284
      1.37840     10.67622      8.28360        -0.000656     -0.000393     -0.001284
      5.49749      6.76485      3.82934        -0.000656      0.000393     -0.001284
      6.85977      4.86253      3.82934         0.000656     -0.000393     -0.001284
      5.49749     10.67622      0.62492        -0.000656     -0.000393      0.001284
      6.85977      0.95116      0.62492         0.000656      0.000393      0.001284
      4.96725      3.38415      3.83006         0.002610     -0.002146     -0.000378
      7.39001      8.24323      3.83006        -0.002610      0.002146     -0.000378
      4.96725      2.42954      0.62420         0.002610      0.002146      0.000378
      7.39001      9.19784      0.62420        -0.002610     -0.002146      0.000378
      3.27092      8.24323      5.07846        -0.002610      0.002146      0.000378
      0.84817      3.38415      5.07846         0.002610     -0.002146      0.000378
      3.27092      9.19784      8.28432        -0.002610     -0.002146     -0.000378
      0.84817      2.42954      8.28432         0.002610      0.002146     -0.000378
      1.53145      6.52631      8.61050        -0.000812      0.000465     -0.001020
      2.58764      5.10107      8.61050         0.000812     -0.000465     -0.001020
      1.53145     10.91476      4.75229        -0.000812     -0.000465      0.001020
      2.58764      0.71262      4.75229         0.000812      0.000465      0.001020
      6.70672      5.10107      0.29802         0.000812     -0.000465      0.001020
      5.65054      6.52631      0.29802        -0.000812      0.000465      0.001020
      6.70672      0.71262      4.15624         0.000812      0.000465     -0.001020
      5.65054     10.91476      4.15624        -0.000812     -0.000465     -0.001020
      2.85060      4.96273      6.09365         0.000451     -0.001121     -0.001592
      1.26849      6.66465      6.09365        -0.000451      0.001121     -0.001592
      2.85060      0.85096      7.26913         0.000451      0.001121      0.001592
      1.26849     10.77642      7.26913        -0.000451     -0.001121      0.001592
      5.38757      6.66465      2.81487        -0.000451      0.001121      0.001592
      6.96969      4.96273      2.81487         0.000451     -0.001121      0.001592
      5.38757     10.77642      1.63939        -0.000451     -0.001121     -0.001592
      6.96969      0.85096      1.63939         0.000451      0.001121     -0.001592
      2.05954      5.81369      8.09376        -0.000000      0.000000     -0.003914
      2.05954      0.00000      5.26902        -0.000000     -0.000000      0.003914
      6.17863      5.81369      0.81476        -0.000000     -0.000000      0.003914
      6.17863      0.00000      3.63950        -0.000000      0.000000     -0.003914
      2.17218      4.69913      3.29767         0.004806      0.000135     -0.000440
      1.94691      6.92825      3.29767        -0.004806     -0.000135     -0.000440
      2.17218      1.11456      1.15659         0.004806     -0.000135      0.000440
      1.94691     10.51282      1.15659        -0.004806      0.000135      0.000440
      6.06600      6.92825      5.61085        -0.004806     -0.000135      0.000440
      6.29126      4.69913      5.61085         0.004806      0.000135      0.000440
      6.06600     10.51282      7.75193        -0.004806      0.000135     -0.000440
      6.29126      1.11456      7.75193         0.004806     -0.000135     -0.000440
      3.39982      2.07637      3.68015         0.000909     -0.000778      0.001032
      0.71927      9.55101      3.68015        -0.000909      0.000778      0.001032
      3.39982      3.73732      0.77411         0.000909      0.000778     -0.001032
      0.71927      7.89005      0.77411        -0.000909     -0.000778     -0.001032
      4.83835      9.55101      5.22837        -0.000909      0.000778     -0.001032
      7.51891      2.07637      5.22837         0.000909     -0.000778     -0.001032
      4.83835      7.89005      8.13442        -0.000909     -0.000778      0.001032
      7.51891      3.73732      8.13442         0.000909      0.000778      0.001032
      4.71000      2.19766      5.47812         0.000583     -0.000584      0.001319
      7.64726      9.42972      5.47812        -0.000583      0.000584      0.001319
      4.71000      3.61603      7.88467         0.000583      0.000584     -0.001319
      7.64726      8.01135      7.88467        -0.000583     -0.000584     -0.001319
      3.52818      9.42972      3.43040        -0.000583      0.000584     -0.001319
      0.59091      2.19766      3.43040         0.000583     -0.000584     -0.001319
      3.52818      8.01135      1.02386        -0.000583     -0.000584      0.001319
      0.59091      3.61603      1.02386         0.000583      0.000584      0.001319
 -----------------------------------------------------------------------------------
    total drift:                                0.000000      0.000000      0.000000


--------------------------------------------------------------------------------------------------------



  FREE ENERGIE OF THE ION-ELECTRON SYSTEM (eV)
  ---------------------------------------------------
  free  energy   TOTEN  =      -578.21740205 eV

  energy  without entropy=     -578.21740205  energy(sigma->0) =     -578.21740205
 


--------------------------------------------------------------------------------------------------------


    POTLOK:  cpu time      1.6594: real time      1.6584


--------------------------------------------------------------------------------------------------------


     LOOP+:  cpu time   1956.1842: real time   1952.2724
    4ORBIT:  cpu time      0.0000: real time      0.0000



 total charge

# of ion       s       p       d       tot
------------------------------------------
    1        0.297   0.367   8.158   8.821
    2        0.297   0.367   8.158   8.821
    3        0.297   0.367   8.158   8.821
    4        0.297   0.367   8.158   8.821
    5        0.875   1.710   0.000   2.585
    6        0.875   1.710   0.000   2.585
    7        0.875   1.710   0.000   2.585
    8        0.875   1.710   0.000   2.585
    9        0.872   1.706   0.000   2.578
   10        0.872   1.706   0.000   2.578
   11        0.872   1.706   0.000   2.578
   12        0.872   1.706   0.000   2.578
   13        0.872   1.706   0.000   2.578
   14        0.872   1.706   0.000   2.578
   15        0.872   1.706   0.000   2.578
   16        0.872   1.706   0.000   2.578
   17        0.857   1.760   0.000   2.616
   18        0.857   1.760   0.000   2.616
   19        0.857   1.760   0.000   2.616
   20        0.857   1.760   0.000   2.616
   21        0.651   0.048   0.000   0.699
   22        0.651   0.048   0.000   0.699
   23        0.651   0.048   0.000   0.699
   24        0.651   0.048   0.000   0.699
   25        0.606   0.094   0.000   0.700
   26        0.606   0.094   0.000   0.700
   27        0.606   0.094   0.000   0.700
   28        0.606   0.094   0.000   0.700
   29        0.606   0.094   0.000   0.700
   30        0.606   0.094   0.000   0.700
   31        0.606   0.094   0.000   0.700
   32        0.606   0.094   0.000   0.700
   33        0.605   0.095   0.000   0.700
   34        0.605   0.095   0.000   0.700
   35        0.605   0.095   0.000   0.700
   36        0.605   0.095   0.000   0.700
   37        0.605   0.095   0.000   0.700
   38        0.605   0.095   0.000   0.700
   39        0.605   0.095   0.000   0.700
   40        0.605   0.095   0.000   0.700
   41        0.639   0.046   0.000   0.685
   42        0.639   0.046   0.000   0.685
   43        0.639   0.046   0.000   0.685
   44        0.639   0.046   0.000   0.685
   45        0.639   0.046   0.000   0.685
   46        0.639   0.046   0.000   0.685
   47        0.639   0.046   0.000   0.685
   48        0.639   0.046   0.000   0.685
   49        0.604   0.094   0.000   0.698
   50        0.604   0.094   0.000   0.698
   51        0.604   0.094   0.000   0.698
   52        0.604   0.094   0.000   0.698
   53        0.604   0.094   0.000   0.698
   54        0.604   0.094   0.000   0.698
   55        0.604   0.094   0.000   0.698
   56        0.604   0.094   0.000   0.698
   57        1.209   2.797   0.000   4.006
   58        1.209   2.797   0.000   4.006
   59        1.209   2.797   0.000   4.006
   60        1.209   2.797   0.000   4.006
   61        1.209   2.797   0.000   4.006
   62        1.209   2.797   0.000   4.006
   63        1.209   2.797   0.000   4.006
   64        1.209   2.797   0.000   4.006
   65        1.211   2.801   0.000   4.012
   66        1.211   2.801   0.000   4.012
   67        1.211   2.801   0.000   4.012
   68        1.211   2.801   0.000   4.012
   69        1.569   3.565   0.000   5.134
   70        1.569   3.565   0.000   5.134
   71        1.569   3.565   0.000   5.134
   72        1.569   3.565   0.000   5.134
   73        1.569   3.565   0.000   5.134
   74        1.569   3.565   0.000   5.134
   75        1.569   3.565   0.000   5.134
   76        1.569   3.565   0.000   5.134
   77        1.568   3.567   0.000   5.134
   78        1.568   3.567   0.000   5.134
   79        1.568   3.567   0.000   5.134
   80        1.568   3.567   0.000   5.134
   81        1.568   3.567   0.000   5.134
   82        1.568   3.567   0.000   5.134
   83        1.568   3.567   0.000   5.134
   84        1.568   3.567   0.000   5.134
   85        1.568   3.567   0.000   5.135
   86        1.568   3.567   0.000   5.135
   87        1.568   3.567   0.000   5.135
   88        1.568   3.567   0.000   5.135
   89        1.568   3.567   0.000   5.135
   90        1.568   3.567   0.000   5.135
   91        1.568   3.567   0.000   5.135
   92        1.568   3.567   0.000   5.135
--------------------------------------------------
tot         89.485 150.988  32.631 273.104



 magnetization (x)

# of ion       s       p       d       tot
------------------------------------------
    1        0.001  -0.001   1.585   1.585
    2       -0.001   0.001  -1.585  -1.585
    3        0.001  -0.001   1.585   1.585
    4       -0.001   0.001  -1.585  -1.585
    5        0.000   0.000   0.000   0.000
    6        0.000   0.000   0.000   0.000
    7        0.000   0.000   0.000   0.000
    8        0.000   0.000   0.000   0.000
    9        0.000   0.001   0.000   0.001
   10       -0.000  -0.001   0.000  -0.001
   11        0.000   0.001   0.000   0.001
   12       -0.000  -0.001   0.000  -0.001
   13        0.000   0.001   0.000   0.001
   14       -0.000  -0.001   0.000  -0.001
   15        0.000   0.001   0.000   0.001
   16       -0.000  -0.001   0.000  -0.001
   17        0.000   0.000   0.000   0.000
   18        0.000   0.000   0.000   0.000
   19        0.000   0.000   0.000   0.000
   20        0.000   0.000   0.000   0.000
   21        0.000   0.000   0.000   0.000
   22        0.000   0.000   0.000   0.000
   23        0.000   0.000   0.000   0.000
   24        0.000   0.000   0.000   0.000
   25        0.000  -0.000   0.000   0.000
   26       -0.000   0.000   0.000  -0.000
   27        0.000  -0.000   0.000   0.000
   28       -0.000   0.000   0.000  -0.000
   29        0.000  -0.000   0.000   0.000
   30       -0.000   0.000   0.000  -0.000
   31        0.000  -0.000   0.000   0.000
   32       -0.000   0.000   0.000  -0.000
   33       -0.000   0.000   0.000   0.000
   34        0.000  -0.000   0.000  -0.000
   35       -0.000   0.000   0.000   0.000
   36        0.000  -0.000   0.000  -0.000
   37       -0.000   0.000   0.000   0.000
   38        0.000  -0.000   0.000  -0.000
   39       -0.000   0.000   0.000   0.000
   40        0.000  -0.000   0.000  -0.000
   41       -0.000   0.000   0.000  -0.000
   42        0.000  -0.000   0.000   0.000
   43       -0.000   0.000   0.000  -0.000
   44        0.000  -0.000   0.000   0.000
   45       -0.000   0.000   0.000  -0.000
   46        0.000  -0.000   0.000   0.000
   47       -0.000   0.000   0.000  -0.000
   48        0.000  -0.000   0.000   0.000
   49        0.000  -0.000   0.000  -0.000
   50       -0.000   0.000   0.000   0.000
   51        0.000  -0.000   0.000  -0.000
   52       -0.000   0.000   0.000   0.000
   53        0.000  -0.000   0.000  -0.000
   54       -0.000   0.000   0.000   0.000
   55        0.000  -0.000   0.000  -0.000
   56       -0.000   0.000   0.000   0.000
   57        0.000   0.000   0.000   0.000
   58       -0.000  -0.000   0.000  -0.000
   59        0.000   0.000   0.000   0.000
   60       -0.000  -0.000   0.000  -0.000
   61        0.000   0.000   0.000   0.000
   62       -0.000  -0.000   0.000  -0.000
   63        0.000   0.000   0.000   0.000
   64       -0.000  -0.000   0.000  -0.000
   65        0.000   0.000   0.000   0.000
   66        0.000   0.000   0.000   0.000
   67        0.000   0.000   0.000   0.000
   68        0.000   0.000   0.000   0.000
   69        0.005   0.045   0.000   0.049
   70       -0.005  -0.045   0.000  -0.049
   71        0.005   0.045   0.000   0.049
   72       -0.005  -0.045   0.000  -0.049
   73        0.005   0.045   0.000   0.049
   74       -0.005  -0.045   0.000  -0.049
   75        0.005   0.045   0.000   0.049
   76       -0.005  -0.045   0.000  -0.049
   77        0.005   0.038   0.000   0.043
   78       -0.005  -0.038   0.000  -0.043
   79        0.005   0.038   0.000   0.043
   80       -0.005  -0.038   0.000  -0.043
   81        0.005   0.038   0.000   0.043
   82       -0.005  -0.038   0.000  -0.043
   83        0.005   0.038   0.000   0.043
   84       -0.005  -0.038   0.000  -0.043
   85       -0.005  -0.042   0.000  -0.047
   86        0.005   0.042   0.000   0.047
   87       -0.005  -0.042   0.000  -0.047
   88        0.005   0.042   0.000   0.047
   89       -0.005  -0.042   0.000  -0.047
   90        0.005   0.042   0.000   0.047
   91       -0.005  -0.042   0.000  -0.047
   92        0.005   0.042   0.000   0.047
--------------------------------------------------
tot          0.000   0.000   0.000   0.000
 

 total amount of memory used by VASP MPI-rank0  1510489. kBytes
=======================================================================

   base      :      30000. kBytes
   nonl-proj :    1179517. kBytes
   fftplans  :      20567. kBytes
   grid      :      77496. kBytes
   one-center:       2861. kBytes
   wavefun   :     200048. kBytes
 
  
  
 General timing and accounting informations for this job:
 ========================================================
  
                  Total CPU time used (sec):     2137.030
                            User time (sec):     2119.166
                          System time (sec):       17.864
                         Elapsed time (sec):     2133.458
  
                   Maximum memory used (kb):     1907200.
                   Average memory used (kb):          N/A
  
                          Minor page faults:       300208
                          Major page faults:            3
                 Voluntary context switches:        35868
