 vasp.6.3.0 20Jan22 (build Feb 18 2022 09:23:16) complex                         
 executed on            Scout-CPU date 2022.03.03  14:15:21
 running on  120 total cores
 distrk:  each k-point on   60 cores,    2 groups
 distr:  one band on NCORE=   1 cores,   60 groups


--------------------------------------------------------------------------------------------------------


 INCAR:
   AMIX = 0.1
   ISYM = -1
   IVDW = 11           (DFT-D3 method of method with no damping)
   ISPIN = 2 (Spin polarised DFT)
   ISTART = 1            (Read existing wavefunction
   ICHARG = 11         (Non-self-consistent: GGA/LDA band structures)
   LORBIT = 11
   LASPH = T
   GGA_COMPAT = .FALSE.
   LREAL = .FALSE.       (Projection operators: automatic)
   ENCUT = 850.0      (Cut-off energy for plane wave basis set, in eV)
   ENAUG = 1500.0
   PREC = Accurate     (Precision level)
   LMAXMIX = 4
   LWAVE = F
   LCHARG = F
   ADDGRID = .TRUE.        (Increase grid
   LPLANE = .TRUE.      (Real space distribution
   NWRITE = 2           (Medium-level output)
   KPAR = 2           (Divides k-grid into separate groups)
   NSW = 0          (number of ionic steps)
   ISMEAR = 0            (gaussian smearing method )
   SIGMA = 0.05         (please check the width of the smearing)
   IBRION = -1            (Algorithm: 0-MD
   POTIM = 0.1
   ISIF = 3            (optimize atomic coordinates and lattice parameters)
   EDIFFG = -0.005       (Ionic convergence
   EDIFF = 1.0d-10
   NELM = 50
   NELMIN = 6
   NELMDL = -8
   ALGO = Normal
   MAGMOM = 4 4 4 -4 -4 -4 36*0 18*0 42*0 6*0
   LCALCPOL = T

 POTCAR:    PAW_PBE Co 02Aug2007                  
 POTCAR:    PAW_PBE O 08Apr2002                   
 POTCAR:    PAW_PBE C 08Apr2002                   
 POTCAR:    PAW_PBE H 15Jun2001                   
 POTCAR:    PAW_PBE N 08Apr2002                   
 -----------------------------------------------------------------------------
|                                                                             |
|           W    W    AA    RRRRR   N    N  II  N    N   GGGG   !!!           |
|           W    W   A  A   R    R  NN   N  II  NN   N  G    G  !!!           |
|           W    W  A    A  R    R  N N  N  II  N N  N  G       !!!           |
|           W WW W  AAAAAA  RRRRR   N  N N  II  N  N N  G  GGG   !            |
|           WW  WW  A    A  R   R   N   NN  II  N   NN  G    G                |
|           W    W  A    A  R    R  N    N  II  N    N   GGGG   !!!           |
|                                                                             |
|     For optimal performance we recommend to set                             |
|       NCORE = 2 up to number-of-cores-per-socket                            |
|     NCORE specifies how many cores store one orbital (NPAR=cpu/NCORE).      |
|     This setting can greatly improve the performance of VASP for DFT.       |
|     The default, NCORE=1 might be grossly inefficient on modern             |
|     multi-core architectures or massively parallel machines. Do your        |
|     own testing! More info at https://www.vasp.at/wiki/index.php/NCORE      |
|     Unfortunately you need to use the default for GW and RPA                |
|     calculations (for HF NCORE is supported but not extensively tested      |
|     yet).                                                                   |
|                                                                             |
 -----------------------------------------------------------------------------

 POTCAR:    PAW_PBE Co 02Aug2007                  
   SHA256 =  0e690c60710354995174544f52f9f2c30879afabeffe3b3fbd4001cb294e56d4 Co/POTCAR             
   COPYR  = (c) Copyright 02Aug2007 Georg Kresse                                                    
   COPYR  = This file is part of the software VASP. Any use, copying, and all other rights are regul
   COPYR  = If you do not have a valid VASP license, you may not use, copy or distribute this file. 
   VRHFIN =Co: d8 s1                                                                                
   LEXCH  = PE                                                                                      
   EATOM  =   813.3670 eV,   59.7808 Ry                                                             
                                                                                                    
   TITEL  = PAW_PBE Co 02Aug2007                                                                    
   LULTRA =        F    use ultrasoft PP ?                                                          
   IUNSCR =        1    unscreen: 0-lin 1-nonlin 2-no                                               
   RPACOR =    2.000    partial core radius                                                         
   POMASS =   58.933; ZVAL   =    9.000    mass and valenz                                          
   RCORE  =    2.300    outmost cutoff radius                                                       
   RWIGS  =    2.460; RWIGS  =    1.302    wigner-seitz radius (au A)                               
   ENMAX  =  267.968; ENMIN  =  200.976 eV                                                          
   RCLOC  =    1.203    cutoff for local pot                                                        
   LCOR   =        T    correct aug charges                                                         
   LPAW   =        T    paw PP                                                                      
   EAUG   =  477.818                                                                                
   DEXC   =    0.000                                                                                
   RMAX   =    2.360    core radius for proj-oper                                                   
   RAUG   =    1.300    factor for augmentation sphere                                              
   RDEP   =    2.393    radius for radial grids                                                     
   RDEPT  =    1.864    core radius for aug-charge                                                  
                                                                                                    
   Atomic configuration                                                                             
    9 entries                                                                                       
     n  l   j            E        occ.                                                              
     1  0  0.50     -7587.6674   2.0000                                                             
     2  0  0.50      -893.6084   2.0000                                                             
     2  1  1.50      -764.5805   6.0000                                                             
     3  0  0.50       -97.5973   2.0000                                                             
     3  1  1.50       -60.9648   6.0000                                                             
     3  2  2.50        -4.2382   8.0000                                                             
     4  0  0.50        -4.3746   1.0000                                                             
     4  1  1.50        -4.0817   0.0000                                                             
     4  3  2.50        -1.3606   0.0000                                                             
   Description                                                                                      
     l       E           TYP  RCUT    TYP  RCUT                                                     
     2     -4.2382362     23  2.300                                                                 
     2     -5.5988188     23  2.300                                                                 
     0     -4.3745797     23  2.300                                                                 
     0      5.7660125     23  2.300                                                                 
     1     -2.7211652     23  2.300                                                                 
     1     16.9860234     23  2.300                                                                 
  local pseudopotential read in
  partial core-charges read in
  partial kinetic energy density read in
  atomic valenz-charges read in
  non local Contribution for L=            2  read in
    real space projection operators read in
  non local Contribution for L=            2  read in
    real space projection operators read in
  non local Contribution for L=            0  read in
    real space projection operators read in
  non local Contribution for L=            0  read in
    real space projection operators read in
  non local Contribution for L=            1  read in
    real space projection operators read in
  non local Contribution for L=            1  read in
    real space projection operators read in
    PAW grid and wavefunctions read in
 
   number of l-projection  operators is LMAX  =            6
   number of lm-projection operators is LMMAX =           18
 
 POTCAR:    PAW_PBE O 08Apr2002                   
   SHA256 =  818f92134a0a090dccd8ba1447fa70422a3b330e708bb4f08108d8ae51209ddf O/POTCAR              
   COPYR  = (c) Copyright 08Apr2002 Georg Kresse                                                    
   COPYR  = This file is part of the software VASP. Any use, copying, and all other rights are regul
   COPYR  = If you do not have a valid VASP license, you may not use, copy or distribute this file. 
   VRHFIN =O: s2p4                                                                                  
   LEXCH  = PE                                                                                      
   EATOM  =   432.3788 eV,   31.7789 Ry                                                             
                                                                                                    
   TITEL  = PAW_PBE O 08Apr2002                                                                     
   LULTRA =        F    use ultrasoft PP ?                                                          
   IUNSCR =        1    unscreen: 0-lin 1-nonlin 2-no                                               
   RPACOR =    1.200    partial core radius                                                         
   POMASS =   16.000; ZVAL   =    6.000    mass and valenz                                          
   RCORE  =    1.520    outmost cutoff radius                                                       
   RWIGS  =    1.550; RWIGS  =    0.820    wigner-seitz radius (au A)                               
   ENMAX  =  400.000; ENMIN  =  300.000 eV                                                          
   ICORE  =        2    local potential                                                             
   LCOR   =        T    correct aug charges                                                         
   LPAW   =        T    paw PP                                                                      
   EAUG   =  605.392                                                                                
   DEXC   =    0.000                                                                                
   RMAX   =    1.553    core radius for proj-oper                                                   
   RAUG   =    1.300    factor for augmentation sphere                                              
   RDEP   =    1.550    radius for radial grids                                                     
   RDEPT  =    1.329    core radius for aug-charge                                                  
                                                                                                    
   Atomic configuration                                                                             
    4 entries                                                                                       
     n  l   j            E        occ.                                                              
     1  0  0.50      -514.6923   2.0000                                                             
     2  0  0.50       -23.9615   2.0000                                                             
     2  1  0.50        -9.0305   4.0000                                                             
     3  2  1.50        -9.5241   0.0000                                                             
   Description                                                                                      
     l       E           TYP  RCUT    TYP  RCUT                                                     
     0    -23.9615318     23  1.200                                                                 
     0     -9.5240782     23  1.200                                                                 
     1     -9.0304911     23  1.520                                                                 
     1      8.1634956     23  1.520                                                                 
     2     -9.5240782      7  1.500                                                                 
  local pseudopotential read in
  partial core-charges read in
  partial kinetic energy density read in
  kinetic energy density of atom read in
  atomic valenz-charges read in
  non local Contribution for L=            0  read in
    real space projection operators read in
  non local Contribution for L=            0  read in
    real space projection operators read in
  non local Contribution for L=            1  read in
    real space projection operators read in
  non local Contribution for L=            1  read in
    real space projection operators read in
    PAW grid and wavefunctions read in
 
   number of l-projection  operators is LMAX  =            4
   number of lm-projection operators is LMMAX =            8
 
 POTCAR:    PAW_PBE C 08Apr2002                   
   SHA256 =  253f7b50bb8d59471dbedb8285d89021f4a42ed1a2c5d38a03a736e69125dd95 C/POTCAR              
   COPYR  = (c) Copyright 08Apr2002 Georg Kresse                                                    
   COPYR  = This file is part of the software VASP. Any use, copying, and all other rights are regul
   COPYR  = If you do not have a valid VASP license, you may not use, copy or distribute this file. 
   VRHFIN =C: s2p2                                                                                  
   LEXCH  = PE                                                                                      
   EATOM  =   147.1560 eV,   10.8157 Ry                                                             
                                                                                                    
   TITEL  = PAW_PBE C 08Apr2002                                                                     
   LULTRA =        F    use ultrasoft PP ?                                                          
   IUNSCR =        1    unscreen: 0-lin 1-nonlin 2-no                                               
   RPACOR =    1.200    partial core radius                                                         
   POMASS =   12.011; ZVAL   =    4.000    mass and valenz                                          
   RCORE  =    1.500    outmost cutoff radius                                                       
   RWIGS  =    1.630; RWIGS  =    0.863    wigner-seitz radius (au A)                               
   ENMAX  =  400.000; ENMIN  =  300.000 eV                                                          
   ICORE  =        2    local potential                                                             
   LCOR   =        T    correct aug charges                                                         
   LPAW   =        T    paw PP                                                                      
   EAUG   =  644.873                                                                                
   DEXC   =    0.000                                                                                
   RMAX   =    1.529    core radius for proj-oper                                                   
   RAUG   =    1.300    factor for augmentation sphere                                              
   RDEP   =    1.501    radius for radial grids                                                     
   RDEPT  =    1.300    core radius for aug-charge                                                  
                                                                                                    
   Atomic configuration                                                                             
    4 entries                                                                                       
     n  l   j            E        occ.                                                              
     1  0  0.50      -273.3789   2.0000                                                             
     2  0  0.50       -13.7508   2.0000                                                             
     2  1  0.50        -5.2854   2.0000                                                             
     3  2  1.50        -5.4423   0.0000                                                             
   Description                                                                                      
     l       E           TYP  RCUT    TYP  RCUT                                                     
     0    -13.7508458     23  1.200                                                                 
     0     -8.2022199     23  1.200                                                                 
     1     -5.2854383     23  1.500                                                                 
     1     34.0145650     23  1.500                                                                 
     2     -5.4423304      7  1.500                                                                 
  local pseudopotential read in
  partial core-charges read in
  partial kinetic energy density read in
  atomic valenz-charges read in
  non local Contribution for L=            0  read in
    real space projection operators read in
  non local Contribution for L=            0  read in
    real space projection operators read in
  non local Contribution for L=            1  read in
    real space projection operators read in
  non local Contribution for L=            1  read in
    real space projection operators read in
    PAW grid and wavefunctions read in
 
   number of l-projection  operators is LMAX  =            4
   number of lm-projection operators is LMMAX =            8
 
 POTCAR:    PAW_PBE H 15Jun2001                   
   SHA256 =  030f79b5d3ab3cf0e668861823c8fb652ff669f3e15e46930bd03bfd63a607b6 H/POTCAR              
   COPYR  = (c) Copyright 15Jun2001 Georg Kresse                                                    
   COPYR  = This file is part of the software VASP. Any use, copying, and all other rights are regul
   COPYR  = If you do not have a valid VASP license, you may not use, copy or distribute this file. 
   VRHFIN =H: ultrasoft test                                                                        
   LEXCH  = PE                                                                                      
   EATOM  =    12.4884 eV,    0.9179 Ry                                                             
                                                                                                    
   TITEL  = PAW_PBE H 15Jun2001                                                                     
   LULTRA =        F    use ultrasoft PP ?                                                          
   IUNSCR =        0    unscreen: 0-lin 1-nonlin 2-no                                               
   RPACOR =    0.000    partial core radius                                                         
   POMASS =    1.000; ZVAL   =    1.000    mass and valenz                                          
   RCORE  =    1.100    outmost cutoff radius                                                       
   RWIGS  =    0.700; RWIGS  =    0.370    wigner-seitz radius (au A)                               
   ENMAX  =  250.000; ENMIN  =  200.000 eV                                                          
   RCLOC  =    0.701    cutoff for local pot                                                        
   LCOR   =        T    correct aug charges                                                         
   LPAW   =        T    paw PP                                                                      
   EAUG   =  400.000                                                                                
   RMAX   =    1.123    core radius for proj-oper                                                   
   RAUG   =    1.200    factor for augmentation sphere                                              
   RDEP   =    1.112    radius for radial grids                                                     
   RDEPT  =    0.926    core radius for aug-charge                                                  
                                                                                                    
   Atomic configuration                                                                             
    2 entries                                                                                       
     n  l   j            E        occ.                                                              
     1  0  0.50        -6.4927   1.0000                                                             
     2  1  0.50        -3.4015   0.0000                                                             
   Description                                                                                      
     l       E           TYP  RCUT    TYP  RCUT                                                     
     0     -6.4927494     23  1.100                                                                 
     0      6.8029130     23  1.100                                                                 
     1     -4.0817478     23  1.100                                                                 
  local pseudopotential read in
  atomic valenz-charges read in
  non local Contribution for L=            0  read in
    real space projection operators read in
  non local Contribution for L=            0  read in
    real space projection operators read in
  non local Contribution for L=            1  read in
    real space projection operators read in
    PAW grid and wavefunctions read in
 
   number of l-projection  operators is LMAX  =            3
   number of lm-projection operators is LMMAX =            5
 
 POTCAR:    PAW_PBE N 08Apr2002                   
   SHA256 =  e053789ff3a61a86a1b75d8a110fcc91f86041011e7b0817c7c99e4e8a6349d7 N/POTCAR              
   COPYR  = (c) Copyright 08Apr2002 Georg Kresse                                                    
   COPYR  = This file is part of the software VASP. Any use, copying, and all other rights are regul
   COPYR  = If you do not have a valid VASP license, you may not use, copy or distribute this file. 
   VRHFIN =N: s2p3                                                                                  
   LEXCH  = PE                                                                                      
   EATOM  =   264.5486 eV,   19.4438 Ry                                                             
                                                                                                    
   TITEL  = PAW_PBE N 08Apr2002                                                                     
   LULTRA =        F    use ultrasoft PP ?                                                          
   IUNSCR =        1    unscreen: 0-lin 1-nonlin 2-no                                               
   RPACOR =    1.200    partial core radius                                                         
   POMASS =   14.001; ZVAL   =    5.000    mass and valenz                                          
   RCORE  =    1.500    outmost cutoff radius                                                       
   RWIGS  =    1.400; RWIGS  =    0.741    wigner-seitz radius (au A)                               
   ENMAX  =  400.000; ENMIN  =  300.000 eV                                                          
   ICORE  =        2    local potential                                                             
   LCOR   =        T    correct aug charges                                                         
   LPAW   =        T    paw PP                                                                      
   EAUG   =  627.112                                                                                
   DEXC   =    0.000                                                                                
   RMAX   =    1.529    core radius for proj-oper                                                   
   RAUG   =    1.300    factor for augmentation sphere                                              
   RDEP   =    1.514    radius for radial grids                                                     
   RDEPT  =    1.338    core radius for aug-charge                                                  
                                                                                                    
   Atomic configuration                                                                             
    4 entries                                                                                       
     n  l   j            E        occ.                                                              
     1  0  0.50      -384.7179   2.0000                                                             
     2  0  0.50       -18.5828   2.0000                                                             
     2  1  0.50        -7.0898   3.0000                                                             
     3  2  1.50        -6.8029   0.0000                                                             
   Description                                                                                      
     l       E           TYP  RCUT    TYP  RCUT                                                     
     0    -18.5828119     23  1.200                                                                 
     0    -13.5018863     23  1.200                                                                 
     1     -7.0897853     23  1.500                                                                 
     1      9.5240782     23  1.500                                                                 
     2     -6.8029130      7  1.500                                                                 
  local pseudopotential read in
  partial core-charges read in
  partial kinetic energy density read in
  atomic valenz-charges read in
  non local Contribution for L=            0  read in
    real space projection operators read in
  non local Contribution for L=            0  read in
    real space projection operators read in
  non local Contribution for L=            1  read in
    real space projection operators read in
  non local Contribution for L=            1  read in
    real space projection operators read in
    PAW grid and wavefunctions read in
 
   number of l-projection  operators is LMAX  =            4
   number of lm-projection operators is LMMAX =            8
 
 -----------------------------------------------------------------------------
|                                                                             |
|               ----> ADVICE to this user running VASP <----                  |
|                                                                             |
|     You have a (more or less) 'large supercell' and for larger cells it     |
|     might be more efficient to use real-space projection operators.         |
|     Therefore, try LREAL= Auto in the INCAR file.                           |
|     Mind: For very accurate calculation, you might also keep the            |
|     reciprocal projection scheme (i.e. LREAL=.FALSE.).                      |
|                                                                             |
 -----------------------------------------------------------------------------

  PAW_PBE Co 02Aug2007                  :
 energy of atom  1       EATOM= -813.3670
 kinetic energy error for atom=    0.0004 (will be added to EATOM!!)
  PAW_PBE O 08Apr2002                   :
 energy of atom  2       EATOM= -432.3788
 kinetic energy error for atom=    0.0031 (will be added to EATOM!!)
  PAW_PBE C 08Apr2002                   :
 energy of atom  3       EATOM= -147.1560
 kinetic energy error for atom=    0.0012 (will be added to EATOM!!)
  PAW_PBE H 15Jun2001                   :
 energy of atom  4       EATOM=  -12.4884
 kinetic energy error for atom=    0.0002 (will be added to EATOM!!)
  PAW_PBE N 08Apr2002                   :
 energy of atom  5       EATOM= -264.5486
 kinetic energy error for atom=    0.0021 (will be added to EATOM!!)
 
 
 POSCAR: crystal
  positions in direct lattice
  velocities in cartesian coordinates
 exchange correlation table for  LEXCH =        8
   RHO(1)=    0.500       N(1)  =     2000
   RHO(2)=  100.500       N(2)  =     4000
 


--------------------------------------------------------------------------------------------------------


 ion  position               nearest neighbor table
   1  0.335  0.332  0.587-  18 2.10  31 2.10   7 2.11  28 2.11  41 2.12  19 2.12
   2  0.668  0.004  0.587-  16 2.10  32 2.10   8 2.11  29 2.11  42 2.12  20 2.12
   3  0.996  0.665  0.587-  17 2.10  33 2.10   9 2.11  30 2.11  40 2.12  21 2.12
   4  0.665  0.668  0.087-  15 2.10  34 2.10  10 2.11  25 2.11  38 2.12  22 2.12
   5  0.332  0.996  0.087-  13 2.10  35 2.10  11 2.11  26 2.11  39 2.12  23 2.12
   6  0.004  0.335  0.087-  14 2.10  36 2.10  12 2.11  27 2.11  37 2.12  24 2.12
   7  0.424  0.261  0.444-  43 1.28   1 2.11
   8  0.739  0.163  0.444-  44 1.28   2 2.11
   9  0.837  0.576  0.444-  45 1.28   3 2.11
  10  0.576  0.739  0.944-  46 1.28   4 2.11
  11  0.261  0.837  0.944-  47 1.28   5 2.11
  12  0.163  0.424  0.944-  48 1.28   6 2.11
  13  0.427  0.154  0.230-  43 1.27   5 2.10
  14  0.846  0.273  0.230-  44 1.27   6 2.10
  15  0.727  0.573  0.230-  45 1.27   4 2.10
  16  0.573  0.846  0.730-  46 1.27   2 2.10
  17  0.154  0.727  0.730-  47 1.27   3 2.10
  18  0.273  0.427  0.730-  48 1.27   1 2.10
  19  0.403  0.492  0.443-  49 1.28   1 2.12
  20  0.508  0.911  0.443-  50 1.28   2 2.12
  21  0.089  0.598  0.443-  51 1.28   3 2.12
  22  0.597  0.508  0.943-  52 1.28   4 2.12
  23  0.492  0.089  0.943-  53 1.28   5 2.12
  24  0.911  0.402  0.943-  54 1.28   6 2.12
  25  0.505  0.603  0.228-  49 1.27   4 2.11
  26  0.397  0.902  0.228-  50 1.27   5 2.11
  27  0.098  0.495  0.228-  51 1.27   6 2.11
  28  0.495  0.397  0.728-  52 1.27   1 2.11
  29  0.603  0.098  0.728-  53 1.27   2 2.11
  30  0.902  0.505  0.728-  54 1.27   3 2.11
  31  0.175  0.237  0.448-  55 1.27   1 2.10
  32  0.763  0.938  0.448-  56 1.27   2 2.10
  33  0.062  0.825  0.448-  57 1.27   3 2.10
  34  0.825  0.763  0.948-  58 1.27   4 2.10
  35  0.237  0.062  0.948-  59 1.27   5 2.10
  36  0.938  0.175  0.948-  60 1.27   6 2.10
  37  0.072  0.244  0.231-  55 1.28   6 2.12
  38  0.756  0.829  0.231-  56 1.28   4 2.12
  39  0.171  0.928  0.231-  57 1.28   5 2.12
  40  0.928  0.756  0.731-  58 1.28   3 2.12
  41  0.244  0.171  0.731-  59 1.28   1 2.12
  42  0.829  0.072  0.731-  60 1.28   2 2.12
  43  0.371  0.183  0.331-  61 1.10  13 1.27   7 1.28
  44  0.817  0.187  0.331-  62 1.10  14 1.27   8 1.28
  45  0.813  0.629  0.331-  63 1.10  15 1.27   9 1.28
  46  0.629  0.817  0.831-  64 1.10  16 1.27  10 1.28
  47  0.183  0.813  0.831-  65 1.10  17 1.27  11 1.28
  48  0.187  0.371  0.831-  66 1.10  18 1.27  12 1.28
  49  0.474  0.514  0.323-  67 1.10  25 1.27  19 1.28
  50  0.486  0.960  0.323-  68 1.10  26 1.27  20 1.28
  51  0.040  0.526  0.323-  69 1.10  27 1.27  21 1.28
  52  0.526  0.486  0.823-  70 1.10  28 1.27  22 1.28
  53  0.514  0.040  0.823-  71 1.10  29 1.27  23 1.28
  54  0.960  0.474  0.823-  72 1.10  30 1.27  24 1.28
  55  0.144  0.294  0.350-  73 1.10  31 1.27  37 1.28
  56  0.706  0.850  0.350-  74 1.10  32 1.27  38 1.28
  57  0.150  0.856  0.350-  75 1.10  33 1.27  39 1.28
  58  0.856  0.706  0.850-  76 1.10  34 1.27  40 1.28
  59  0.294  0.150  0.850-  77 1.10  35 1.27  41 1.28
  60  0.850  0.144  0.850-  78 1.10  36 1.27  42 1.28
  61  0.270  0.140  0.324-  43 1.10
  62  0.860  0.130  0.324-  44 1.10
  63  0.870  0.730  0.324-  45 1.10
  64  0.730  0.860  0.824-  46 1.10
  65  0.140  0.870  0.824-  47 1.10
  66  0.130  0.270  0.824-  48 1.10
  67  0.511  0.451  0.303-  49 1.10
  68  0.549  0.059  0.303-  50 1.10
  69  0.941  0.489  0.303-  51 1.10
  70  0.489  0.549  0.803-  52 1.10
  71  0.451  0.941  0.803-  53 1.10
  72  0.059  0.511  0.803-  54 1.10
  73  0.181  0.394  0.367-  55 1.10
  74  0.606  0.787  0.367-  56 1.10
  75  0.213  0.819  0.367-  57 1.10
  76  0.819  0.606  0.867-  58 1.10
  77  0.394  0.213  0.867-  59 1.10
  78  0.787  0.181  0.867-  60 1.10
  79  0.577  0.307  0.498- 103 1.05
  80  0.693  0.271  0.498- 103 1.05
  81  0.729  0.423  0.498- 103 1.05
  82  0.423  0.693  0.998- 104 1.05
  83  0.307  0.729  0.998- 104 1.05
  84  0.271  0.577  0.998- 104 1.05
  85  0.667  0.333  0.660- 103 1.02
  86  0.333  0.667  0.160- 104 1.02
  87  0.359  0.603  0.498- 105 1.05
  88  0.397  0.756  0.498- 105 1.05
  89  0.244  0.641  0.498- 105 1.05
  90  0.641  0.397  0.998- 106 1.05
  91  0.603  0.244  0.998- 106 1.05
  92  0.756  0.359  0.998- 106 1.05
  93  0.333  0.667  0.660- 105 1.02
  94  0.667  0.333  0.160- 106 1.02
  95  0.028  0.090  0.175- 107 1.05
  96  0.910  0.938  0.175- 107 1.05
  97  0.062  0.972  0.175- 107 1.05
  98  0.972  0.910  0.675- 108 1.05
  99  0.090  0.062  0.675- 108 1.05
 100  0.938  0.028  0.675- 108 1.05
 101  1.000  0.000  0.013- 107 1.02
 102  0.000  1.000  0.513- 108 1.02
 103  0.667  0.333  0.537-  85 1.02  81 1.05  79 1.05  80 1.05
 104  0.333  0.667  0.037-  86 1.02  84 1.05  82 1.05  83 1.05
 105  0.333  0.667  0.537-  93 1.02  88 1.05  89 1.05  87 1.05
 106  0.667  0.333  0.037-  94 1.02  91 1.05  92 1.05  90 1.05
 107  1.000  0.000  0.136- 101 1.02  95 1.05  96 1.05  97 1.05
 108  0.000  1.000  0.636- 102 1.02  98 1.05  99 1.05 100 1.05
 

IMPORTANT INFORMATION: All symmetrisations will be switched off!
NOSYMM: (Re-)initialisation of all symmetry stuff for point group C_1.


----------------------------------------------------------------------------------------

                                     Primitive cell                                     

  volume of cell :    1135.5180

  direct lattice vectors                    reciprocal lattice vectors
    12.561372244 -0.000102703 -0.000000000     0.079609512  0.045961519  0.000000000
    -6.280570824 10.878517227  0.000000000     0.000000752  0.091924726  0.000000000
    -0.000000000  0.000000000  8.309775343     0.000000000  0.000000000  0.120340197

  length of vectors
    12.561372245 12.561357687  8.309775343     0.091924620  0.091924726  0.120340197

  position of ions in fractional coordinates (direct lattice)
     0.335077837  0.331507603  0.587032697
     0.668492881  0.003569055  0.587032340
     0.996429577  0.664923890  0.587031520
     0.664922163  0.668492397  0.087032697
     0.331507119  0.996430945  0.087032340
     0.003570423  0.335076110  0.087031520
     0.424108633  0.261027353  0.444259281
     0.738972988  0.163077858  0.444258401
     0.836919307  0.575891639  0.444260776
     0.575891367  0.738972647  0.944259281
     0.261027012  0.836922142  0.944258401
     0.163080693  0.424108361  0.944260776
     0.427179680  0.154478711  0.229902135
     0.845520665  0.272696871  0.229900168
     0.727300307  0.572821441  0.229903833
     0.572820320  0.845521289  0.729902135
     0.154479335  0.727303129  0.729900168
     0.272699693  0.427178559  0.729903833
     0.402500503  0.491836911  0.443352367
     0.508164215  0.910664169  0.443350209
     0.089335264  0.597501553  0.443349118
     0.597499497  0.508163089  0.943352367
     0.491835785  0.089335831  0.943350209
     0.910664736  0.402498447  0.943349118
     0.504807291  0.603103104  0.227730450
     0.396895559  0.901704462  0.227729132
     0.098293972  0.495191010  0.227728957
     0.495192709  0.396896896  0.727730450
     0.603104441  0.098295538  0.727729132
     0.901706028  0.504808990  0.727728957
     0.174530229  0.236839411  0.447896126
     0.763161535  0.937689467  0.447898295
     0.062307196  0.825471663  0.447894814
     0.825469771  0.763160589  0.947896126
     0.236838465  0.062310533  0.947898295
     0.937692804  0.174528337  0.947894814
     0.072382023  0.243664416  0.230766062
     0.756334610  0.828717214  0.230767271
     0.171283319  0.927619689  0.230766879
     0.927617977  0.756335584  0.730766062
     0.243665390  0.171282786  0.730767271
     0.828716681  0.072380311  0.730766879
     0.370592749  0.183134816  0.331498451
     0.816867110  0.187456501  0.331495721
     0.812539086  0.629407544  0.331499614
     0.629407251  0.816865184  0.831498451
     0.183132890  0.812543499  0.831495721
     0.187460914  0.370592456  0.831499614
     0.473895035  0.513745766  0.323186954
     0.486255444  0.960148899  0.323184232
     0.039849337  0.526104573  0.323186259
     0.526104965  0.486254234  0.823186954
     0.513744556  0.039851101  0.823184232
     0.960150663  0.473895427  0.823186259
     0.144232549  0.294436433  0.350023558
     0.705563593  0.849792914  0.350023038
     0.150205374  0.855771556  0.350024967
     0.855767451  0.705563567  0.850023558
     0.294436407  0.150207086  0.850023038
     0.849794626  0.144228444  0.850024967
     0.269695877  0.139610900  0.323627839
     0.860392596  0.130083842  0.323629087
     0.869909915  0.730305827  0.323636272
     0.730304123  0.860389100  0.823627839
     0.139607404  0.869916158  0.823629087
     0.130090085  0.269694173  0.823636272
     0.510815697  0.451484968  0.303155680
     0.548518421  0.059330364  0.303148475
     0.940666349  0.489181477  0.303156300
     0.489184303  0.548515032  0.803155680
     0.451481579  0.940669636  0.803148475
     0.059333651  0.510818523  0.803156300
     0.181369137  0.393974794  0.366828297
     0.606026472  0.787391921  0.366833159
     0.212608501  0.818637691  0.366836809
     0.818630863  0.606025206  0.866828297
     0.393973528  0.212608079  0.866833159
     0.787391499  0.181362309  0.866836809
     0.577401093  0.306688824  0.497910325
     0.693310477  0.270707701  0.497906848
     0.729290186  0.422597944  0.497910043
     0.422598907  0.693311176  0.997910325
     0.306689523  0.729292299  0.997906848
     0.270709814  0.577402056  0.997910043
     0.666668544  0.333329719  0.660182466
     0.333331456  0.666670281  0.160182466
     0.359059669  0.603223205  0.497520220
     0.396776390  0.755838312  0.497519134
     0.244161173  0.640940334  0.497517363
     0.640940331  0.396776795  0.997520220
     0.603223610  0.244161688  0.997519134
     0.755838827  0.359059666  0.997517363
     0.333330309  0.666667953  0.659832261
     0.666669691  0.333332047  0.159832261
     0.027572022  0.089554042  0.175154967
     0.910445005  0.938017616  0.175153452
     0.061981705  0.972427029  0.175152738
     0.972427978  0.910445958  0.675154967
     0.089554995  0.061982384  0.675153452
     0.938018295  0.027572971  0.675152738
     0.999999332  0.000001171  0.012923318
     0.000000668  0.999998829  0.512923318
     0.666667461  0.333332058  0.537226719
     0.333332539  0.666667942  0.037226719
     0.333331653  0.666668083  0.536799920
     0.666668347  0.333331917  0.036799920
     0.999999236  0.000000130  0.135904682
     0.000000764  0.999999870  0.635904682

  ion indices of the primitive-cell ions
   primitive index   ion index
                 1           1
                 2           2
                 3           3
                 4           4
                 5           5
                 6           6
                 7           7
                 8           8
                 9           9
                10          10
                11          11
                12          12
                13          13
                14          14
                15          15
                16          16
                17          17
                18          18
                19          19
                20          20
                21          21
                22          22
                23          23
                24          24
                25          25
                26          26
                27          27
                28          28
                29          29
                30          30
                31          31
                32          32
                33          33
                34          34
                35          35
                36          36
                37          37
                38          38
                39          39
                40          40
                41          41
                42          42
                43          43
                44          44
                45          45
                46          46
                47          47
                48          48
                49          49
                50          50
                51          51
                52          52
                53          53
                54          54
                55          55
                56          56
                57          57
                58          58
                59          59
                60          60
                61          61
                62          62
                63          63
                64          64
                65          65
                66          66
                67          67
                68          68
                69          69
                70          70
                71          71
                72          72
                73          73
                74          74
                75          75
                76          76
                77          77
                78          78
                79          79
                80          80
                81          81
                82          82
                83          83
                84          84
                85          85
                86          86
                87          87
                88          88
                89          89
                90          90
                91          91
                92          92
                93          93
                94          94
                95          95
                96          96
                97          97
                98          98
                99          99
               100         100
               101         101
               102         102
               103         103
               104         104
               105         105
               106         106
               107         107
               108         108

----------------------------------------------------------------------------------------

 
 
 KPOINTS: K-Spacing Value to Generate K-Mesh: 0.04

Automatic generation of k-mesh.
 Grid dimensions read from file:
 generate k-points for:    4    4    5

 Generating k-lattice:

  Cartesian coordinates                     Fractional coordinates (reciprocal lattice)
     0.019902378  0.011490380  0.000000000     0.250000000  0.000000000  0.000000000
     0.000000188  0.022981182  0.000000000    -0.000000000  0.250000000  0.000000000
     0.000000000  0.000000000  0.024068039     0.000000000  0.000000000  0.200000000

  Length of vectors
     0.022981155  0.022981182  0.024068039

  Shift w.r.t. Gamma in fractional coordinates (k-lattice)
     0.000000000  0.000000000  0.000000000

 
 Subroutine IBZKPT returns following result:
 ===========================================
 
 Found     80 irreducible k-points:
 
 Following reciprocal coordinates:
            Coordinates               Weight
  0.000000  0.000000  0.000000      1.000000
  0.250000  0.000000  0.000000      1.000000
  0.500000  0.000000  0.000000      1.000000
 -0.250000  0.000000  0.000000      1.000000
  0.000000  0.250000  0.000000      1.000000
  0.250000  0.250000  0.000000      1.000000
  0.500000  0.250000  0.000000      1.000000
 -0.250000  0.250000  0.000000      1.000000
  0.000000  0.500000  0.000000      1.000000
  0.250000  0.500000  0.000000      1.000000
  0.500000  0.500000  0.000000      1.000000
 -0.250000  0.500000  0.000000      1.000000
  0.000000 -0.250000  0.000000      1.000000
  0.250000 -0.250000  0.000000      1.000000
  0.500000 -0.250000  0.000000      1.000000
 -0.250000 -0.250000  0.000000      1.000000
  0.000000  0.000000  0.200000      1.000000
  0.250000  0.000000  0.200000      1.000000
  0.500000  0.000000  0.200000      1.000000
 -0.250000  0.000000  0.200000      1.000000
  0.000000  0.250000  0.200000      1.000000
  0.250000  0.250000  0.200000      1.000000
  0.500000  0.250000  0.200000      1.000000
 -0.250000  0.250000  0.200000      1.000000
  0.000000  0.500000  0.200000      1.000000
  0.250000  0.500000  0.200000      1.000000
  0.500000  0.500000  0.200000      1.000000
 -0.250000  0.500000  0.200000      1.000000
  0.000000 -0.250000  0.200000      1.000000
  0.250000 -0.250000  0.200000      1.000000
  0.500000 -0.250000  0.200000      1.000000
 -0.250000 -0.250000  0.200000      1.000000
  0.000000  0.000000  0.400000      1.000000
  0.250000  0.000000  0.400000      1.000000
  0.500000  0.000000  0.400000      1.000000
 -0.250000  0.000000  0.400000      1.000000
  0.000000  0.250000  0.400000      1.000000
  0.250000  0.250000  0.400000      1.000000
  0.500000  0.250000  0.400000      1.000000
 -0.250000  0.250000  0.400000      1.000000
  0.000000  0.500000  0.400000      1.000000
  0.250000  0.500000  0.400000      1.000000
  0.500000  0.500000  0.400000      1.000000
 -0.250000  0.500000  0.400000      1.000000
  0.000000 -0.250000  0.400000      1.000000
  0.250000 -0.250000  0.400000      1.000000
  0.500000 -0.250000  0.400000      1.000000
 -0.250000 -0.250000  0.400000      1.000000
  0.000000  0.000000 -0.400000      1.000000
  0.250000  0.000000 -0.400000      1.000000
  0.500000  0.000000 -0.400000      1.000000
 -0.250000  0.000000 -0.400000      1.000000
  0.000000  0.250000 -0.400000      1.000000
  0.250000  0.250000 -0.400000      1.000000
  0.500000  0.250000 -0.400000      1.000000
 -0.250000  0.250000 -0.400000      1.000000
  0.000000  0.500000 -0.400000      1.000000
  0.250000  0.500000 -0.400000      1.000000
  0.500000  0.500000 -0.400000      1.000000
 -0.250000  0.500000 -0.400000      1.000000
  0.000000 -0.250000 -0.400000      1.000000
  0.250000 -0.250000 -0.400000      1.000000
  0.500000 -0.250000 -0.400000      1.000000
 -0.250000 -0.250000 -0.400000      1.000000
  0.000000  0.000000 -0.200000      1.000000
  0.250000  0.000000 -0.200000      1.000000
  0.500000  0.000000 -0.200000      1.000000
 -0.250000  0.000000 -0.200000      1.000000
  0.000000  0.250000 -0.200000      1.000000
  0.250000  0.250000 -0.200000      1.000000
  0.500000  0.250000 -0.200000      1.000000
 -0.250000  0.250000 -0.200000      1.000000
  0.000000  0.500000 -0.200000      1.000000
  0.250000  0.500000 -0.200000      1.000000
  0.500000  0.500000 -0.200000      1.000000
 -0.250000  0.500000 -0.200000      1.000000
  0.000000 -0.250000 -0.200000      1.000000
  0.250000 -0.250000 -0.200000      1.000000
  0.500000 -0.250000 -0.200000      1.000000
 -0.250000 -0.250000 -0.200000      1.000000
 
 Following cartesian coordinates:
            Coordinates               Weight
  0.000000  0.000000  0.000000      1.000000
  0.019902  0.011490  0.000000      1.000000
  0.039805  0.022981  0.000000      1.000000
 -0.019902 -0.011490  0.000000      1.000000
  0.000000  0.022981  0.000000      1.000000
  0.019903  0.034472  0.000000      1.000000
  0.039805  0.045962  0.000000      1.000000
 -0.019902  0.011491  0.000000      1.000000
  0.000000  0.045962  0.000000      1.000000
  0.019903  0.057453  0.000000      1.000000
  0.039805  0.068943  0.000000      1.000000
 -0.019902  0.034472  0.000000      1.000000
 -0.000000 -0.022981  0.000000      1.000000
  0.019902 -0.011491  0.000000      1.000000
  0.039805 -0.000000  0.000000      1.000000
 -0.019903 -0.034472  0.000000      1.000000
  0.000000  0.000000  0.024068      1.000000
  0.019902  0.011490  0.024068      1.000000
  0.039805  0.022981  0.024068      1.000000
 -0.019902 -0.011490  0.024068      1.000000
  0.000000  0.022981  0.024068      1.000000
  0.019903  0.034472  0.024068      1.000000
  0.039805  0.045962  0.024068      1.000000
 -0.019902  0.011491  0.024068      1.000000
  0.000000  0.045962  0.024068      1.000000
  0.019903  0.057453  0.024068      1.000000
  0.039805  0.068943  0.024068      1.000000
 -0.019902  0.034472  0.024068      1.000000
 -0.000000 -0.022981  0.024068      1.000000
  0.019902 -0.011491  0.024068      1.000000
  0.039805 -0.000000  0.024068      1.000000
 -0.019903 -0.034472  0.024068      1.000000
  0.000000  0.000000  0.048136      1.000000
  0.019902  0.011490  0.048136      1.000000
  0.039805  0.022981  0.048136      1.000000
 -0.019902 -0.011490  0.048136      1.000000
  0.000000  0.022981  0.048136      1.000000
  0.019903  0.034472  0.048136      1.000000
  0.039805  0.045962  0.048136      1.000000
 -0.019902  0.011491  0.048136      1.000000
  0.000000  0.045962  0.048136      1.000000
  0.019903  0.057453  0.048136      1.000000
  0.039805  0.068943  0.048136      1.000000
 -0.019902  0.034472  0.048136      1.000000
 -0.000000 -0.022981  0.048136      1.000000
  0.019902 -0.011491  0.048136      1.000000
  0.039805 -0.000000  0.048136      1.000000
 -0.019903 -0.034472  0.048136      1.000000
  0.000000  0.000000 -0.048136      1.000000
  0.019902  0.011490 -0.048136      1.000000
  0.039805  0.022981 -0.048136      1.000000
 -0.019902 -0.011490 -0.048136      1.000000
  0.000000  0.022981 -0.048136      1.000000
  0.019903  0.034472 -0.048136      1.000000
  0.039805  0.045962 -0.048136      1.000000
 -0.019902  0.011491 -0.048136      1.000000
  0.000000  0.045962 -0.048136      1.000000
  0.019903  0.057453 -0.048136      1.000000
  0.039805  0.068943 -0.048136      1.000000
 -0.019902  0.034472 -0.048136      1.000000
 -0.000000 -0.022981 -0.048136      1.000000
  0.019902 -0.011491 -0.048136      1.000000
  0.039805 -0.000000 -0.048136      1.000000
 -0.019903 -0.034472 -0.048136      1.000000
  0.000000  0.000000 -0.024068      1.000000
  0.019902  0.011490 -0.024068      1.000000
  0.039805  0.022981 -0.024068      1.000000
 -0.019902 -0.011490 -0.024068      1.000000
  0.000000  0.022981 -0.024068      1.000000
  0.019903  0.034472 -0.024068      1.000000
  0.039805  0.045962 -0.024068      1.000000
 -0.019902  0.011491 -0.024068      1.000000
  0.000000  0.045962 -0.024068      1.000000
  0.019903  0.057453 -0.024068      1.000000
  0.039805  0.068943 -0.024068      1.000000
 -0.019902  0.034472 -0.024068      1.000000
 -0.000000 -0.022981 -0.024068      1.000000
  0.019902 -0.011491 -0.024068      1.000000
  0.039805 -0.000000 -0.024068      1.000000
 -0.019903 -0.034472 -0.024068      1.000000
 
 WARNING: full set of k-points will be restricted to regular points only.

 
 Subroutine IBZKPT_HF returns following result:
 ==============================================
 
 Found     80 k-points in 1st BZ
 the following     80 k-points will be used (e.g. in the exchange kernel)
 Following reciprocal coordinates:   # in IRBZ
  0.000000  0.000000  0.000000    0.01250000   1 t-inv F
  0.250000  0.000000  0.000000    0.01250000   2 t-inv F
  0.500000  0.000000  0.000000    0.01250000   3 t-inv F
 -0.250000  0.000000  0.000000    0.01250000   4 t-inv F
  0.000000  0.250000  0.000000    0.01250000   5 t-inv F
  0.250000  0.250000  0.000000    0.01250000   6 t-inv F
  0.500000  0.250000  0.000000    0.01250000   7 t-inv F
 -0.250000  0.250000  0.000000    0.01250000   8 t-inv F
  0.000000  0.500000  0.000000    0.01250000   9 t-inv F
  0.250000  0.500000  0.000000    0.01250000  10 t-inv F
  0.500000  0.500000  0.000000    0.01250000  11 t-inv F
 -0.250000  0.500000  0.000000    0.01250000  12 t-inv F
  0.000000 -0.250000  0.000000    0.01250000  13 t-inv F
  0.250000 -0.250000  0.000000    0.01250000  14 t-inv F
  0.500000 -0.250000  0.000000    0.01250000  15 t-inv F
 -0.250000 -0.250000  0.000000    0.01250000  16 t-inv F
  0.000000  0.000000  0.200000    0.01250000  17 t-inv F
  0.250000  0.000000  0.200000    0.01250000  18 t-inv F
  0.500000  0.000000  0.200000    0.01250000  19 t-inv F
 -0.250000  0.000000  0.200000    0.01250000  20 t-inv F
  0.000000  0.250000  0.200000    0.01250000  21 t-inv F
  0.250000  0.250000  0.200000    0.01250000  22 t-inv F
  0.500000  0.250000  0.200000    0.01250000  23 t-inv F
 -0.250000  0.250000  0.200000    0.01250000  24 t-inv F
  0.000000  0.500000  0.200000    0.01250000  25 t-inv F
  0.250000  0.500000  0.200000    0.01250000  26 t-inv F
  0.500000  0.500000  0.200000    0.01250000  27 t-inv F
 -0.250000  0.500000  0.200000    0.01250000  28 t-inv F
  0.000000 -0.250000  0.200000    0.01250000  29 t-inv F
  0.250000 -0.250000  0.200000    0.01250000  30 t-inv F
  0.500000 -0.250000  0.200000    0.01250000  31 t-inv F
 -0.250000 -0.250000  0.200000    0.01250000  32 t-inv F
  0.000000  0.000000  0.400000    0.01250000  33 t-inv F
  0.250000  0.000000  0.400000    0.01250000  34 t-inv F
  0.500000  0.000000  0.400000    0.01250000  35 t-inv F
 -0.250000  0.000000  0.400000    0.01250000  36 t-inv F
  0.000000  0.250000  0.400000    0.01250000  37 t-inv F
  0.250000  0.250000  0.400000    0.01250000  38 t-inv F
  0.500000  0.250000  0.400000    0.01250000  39 t-inv F
 -0.250000  0.250000  0.400000    0.01250000  40 t-inv F
  0.000000  0.500000  0.400000    0.01250000  41 t-inv F
  0.250000  0.500000  0.400000    0.01250000  42 t-inv F
  0.500000  0.500000  0.400000    0.01250000  43 t-inv F
 -0.250000  0.500000  0.400000    0.01250000  44 t-inv F
  0.000000 -0.250000  0.400000    0.01250000  45 t-inv F
  0.250000 -0.250000  0.400000    0.01250000  46 t-inv F
  0.500000 -0.250000  0.400000    0.01250000  47 t-inv F
 -0.250000 -0.250000  0.400000    0.01250000  48 t-inv F
  0.000000  0.000000 -0.400000    0.01250000  49 t-inv F
  0.250000  0.000000 -0.400000    0.01250000  50 t-inv F
  0.500000  0.000000 -0.400000    0.01250000  51 t-inv F
 -0.250000  0.000000 -0.400000    0.01250000  52 t-inv F
  0.000000  0.250000 -0.400000    0.01250000  53 t-inv F
  0.250000  0.250000 -0.400000    0.01250000  54 t-inv F
  0.500000  0.250000 -0.400000    0.01250000  55 t-inv F
 -0.250000  0.250000 -0.400000    0.01250000  56 t-inv F
  0.000000  0.500000 -0.400000    0.01250000  57 t-inv F
  0.250000  0.500000 -0.400000    0.01250000  58 t-inv F
  0.500000  0.500000 -0.400000    0.01250000  59 t-inv F
 -0.250000  0.500000 -0.400000    0.01250000  60 t-inv F
  0.000000 -0.250000 -0.400000    0.01250000  61 t-inv F
  0.250000 -0.250000 -0.400000    0.01250000  62 t-inv F
  0.500000 -0.250000 -0.400000    0.01250000  63 t-inv F
 -0.250000 -0.250000 -0.400000    0.01250000  64 t-inv F
  0.000000  0.000000 -0.200000    0.01250000  65 t-inv F
  0.250000  0.000000 -0.200000    0.01250000  66 t-inv F
  0.500000  0.000000 -0.200000    0.01250000  67 t-inv F
 -0.250000  0.000000 -0.200000    0.01250000  68 t-inv F
  0.000000  0.250000 -0.200000    0.01250000  69 t-inv F
  0.250000  0.250000 -0.200000    0.01250000  70 t-inv F
  0.500000  0.250000 -0.200000    0.01250000  71 t-inv F
 -0.250000  0.250000 -0.200000    0.01250000  72 t-inv F
  0.000000  0.500000 -0.200000    0.01250000  73 t-inv F
  0.250000  0.500000 -0.200000    0.01250000  74 t-inv F
  0.500000  0.500000 -0.200000    0.01250000  75 t-inv F
 -0.250000  0.500000 -0.200000    0.01250000  76 t-inv F
  0.000000 -0.250000 -0.200000    0.01250000  77 t-inv F
  0.250000 -0.250000 -0.200000    0.01250000  78 t-inv F
  0.500000 -0.250000 -0.200000    0.01250000  79 t-inv F
 -0.250000 -0.250000 -0.200000    0.01250000  80 t-inv F


--------------------------------------------------------------------------------------------------------




 Dimension of arrays:
   k-points           NKPTS =     80   k-points in BZ     NKDIM =     80   number of bands    NBANDS=    300
   number of dos      NEDOS =    301   number of ions     NIONS =    108
   non local maximal  LDIM  =      6   non local SUM 2l+1 LMDIM =     18
   total plane-waves  NPLWV = ******
   max r-space proj   IRMAX =      1   max aug-charges    IRDMAX= 320253
   dimension x,y,z NGX =   120 NGY =  120 NGZ =   80
   dimension x,y,z NGXF=   240 NGYF=  240 NGZF=  160
   support grid    NGXF=   480 NGYF=  480 NGZF=  320
   ions per type =               6  36  18  42   6
   NGX,Y,Z   is equivalent  to a cutoff of  15.88, 15.88, 16.00 a.u.
   NGXF,Y,Z  is equivalent  to a cutoff of  31.76, 31.76, 32.01 a.u.

 SYSTEM =  unknown system                          
 POSCAR =  crystal                                 

 Startparameter for this run:
   NWRITE =      2    write-flag & timer
   PREC   = accura    normal or accurate (medium, high low for compatibility)
   ISTART =      1    job   : 0-new  1-cont  2-samecut
   ICHARG =     11    charge: 1-file 2-atom 10-const
   ISPIN  =      2    spin polarized calculation?
   LNONCOLLINEAR =      F non collinear calculations
   LSORBIT =      F    spin-orbit coupling
   INIWAV =      1    electr: 0-lowe 1-rand  2-diag
   LASPH  =      T    aspherical Exc in radial PAW
 Electronic Relaxation 1
   ENCUT  =  850.0 eV  62.47 Ry    7.90 a.u.  29.86 29.86 19.75*2*pi/ulx,y,z
   ENINI  =  850.0     initial cutoff
   ENAUG  = 1500.0 eV  augmentation charge cutoff
   NELM   =     50;   NELMIN=  6; NELMDL= -8     # of ELM steps 
   EDIFF  = 0.1E-09   stopping-criterion for ELM
   LREAL  =      F    real-space projection
   NLSPLINE    = F    spline interpolate recip. space projectors
   LCOMPAT=      F    compatible to vasp.4.4
   GGA_COMPAT  = F    GGA compatible to vasp.4.4-vasp.4.6
   LMAXPAW     = -100 max onsite density
   LMAXMIX     =    4 max onsite mixed and CHGCAR
   VOSKOWN=      0    Vosko Wilk Nusair interpolation
   ROPT   =    0.00000   0.00000   0.00000   0.00000
   ROPT   =    0.00000
 Ionic relaxation
   EDIFFG = -.5E-02   stopping-criterion for IOM
   NSW    =      0    number of steps for IOM
   NBLOCK =      1;   KBLOCK =      1    inner block; outer block 
   IBRION =     -1    ionic relax: 0-MD 1-quasi-New 2-CG
   NFREE  =      0    steps in history (QN), initial steepest desc. (CG)
   ISIF   =      3    stress and relaxation
   IWAVPR =     10    prediction:  0-non 1-charg 2-wave 3-comb
   ISYM   =     -1    0-nonsym 1-usesym 2-fastsym
   LCORR  =      T    Harris-Foulkes like correction to forces

   POTIM  = 0.1000    time-step for ionic-motion
   TEIN   =    0.0    initial temperature
   TEBEG  =    0.0;   TEEND  =   0.0 temperature during run
   SMASS  =  -3.00    Nose mass-parameter (am)
   estimated Nose-frequenzy (Omega)   =  0.10E-29 period in steps = 0.63E+47 mass=  -0.361E-26a.u.
   SCALEE = 1.0000    scale energy and forces
   NPACO  =    256;   APACO  = 10.0  distance and # of slots for P.C.
   PSTRESS=    0.0 pullay stress

  Mass of Ions in am
   POMASS =  58.93 16.00 12.01  1.00 14.00
  Ionic Valenz
   ZVAL   =   9.00  6.00  4.00  1.00  5.00
  Atomic Wigner-Seitz radii
   RWIGS  =  -1.00 -1.00 -1.00 -1.00 -1.00
  virtual crystal weights 
   VCA    =   1.00  1.00  1.00  1.00  1.00
   NELECT =     414.0000    total number of electrons
   NUPDOWN=      -1.0000    fix difference up-down

 DOS related values:
   EMIN   =  10.00;   EMAX   =-10.00  energy-range for DOS
   EFERMI =   0.00
   ISMEAR =     0;   SIGMA  =   0.05  broadening in eV -4-tet -1-fermi 0-gaus

 Electronic relaxation 2 (details)
   IALGO  =     38    algorithm
   LDIAG  =      T    sub-space diagonalisation (order eigenvalues)
   LSUBROT=      F    optimize rotation matrix (better conditioning)
   TURBO    =      0    0=normal 1=particle mesh
   IRESTART =      0    0=no restart 2=restart with 2 vectors
   NREBOOT  =      0    no. of reboots
   NMIN     =      0    reboot dimension
   EREF     =   0.00    reference energy to select bands
   IMIX   =      4    mixing-type and parameters
     AMIX     =   0.10;   BMIX     =  1.00
     AMIX_MAG =   0.40;   BMIX_MAG =  1.00
     AMIN     =   0.10
     WC   =   100.;   INIMIX=   1;  MIXPRE=   1;  MAXMIX= -45

 Intra band minimization:
   WEIMIN = 0.0000     energy-eigenvalue tresh-hold
   EBREAK =  0.83E-13  absolut break condition
   DEPER  =   0.30     relativ break condition  

   TIME   =   0.40     timestep for ELM

  volume/ion in A,a.u.               =      10.51        70.95
  Fermi-wavevector in a.u.,A,eV,Ry     =   1.169527  2.210086 18.609961  1.367794
  Thomas-Fermi vector in A             =   2.305999
 
 Write flags
   LWAVE        =      F    write WAVECAR
   LDOWNSAMPLE  =      F    k-point downsampling of WAVECAR
   LCHARG       =      F    write CHGCAR
   LVTOT        =      F    write LOCPOT, total local potential
   LVHAR        =      F    write LOCPOT, Hartree potential only
   LELF         =      F    write electronic localiz. function (ELF)
   LORBIT       =     11    0 simple, 1 ext, 2 COOP (PROOUT), +10 PAW based schemes


 Dipole corrections
   LMONO  =      F    monopole corrections only (constant potential shift)
   LDIPOL =      F    correct potential (dipole corrections)
   IDIPOL =      0    1-x, 2-y, 3-z, 4-all directions 
   EPSILON=  1.0000000 bulk dielectric constant

 Exchange correlation treatment:
   GGA     =    --    GGA type
   LEXCH   =     8    internal setting for exchange type
   LIBXC   =     F    Libxc                    
   VOSKOWN =     0    Vosko Wilk Nusair interpolation
   LHFCALC =     F    Hartree Fock is set to
   LHFONE  =     F    Hartree Fock one center treatment
   AEXX    =    0.0000 exact exchange contribution

 Linear response parameters
   LEPSILON=     F    determine dielectric tensor
   LRPA    =     F    only Hartree local field effects (RPA)
   LNABLA  =     F    use nabla operator in PAW spheres
   LVEL    =     F    velocity operator in full k-point grid
   CSHIFT  =0.1000    complex shift for real part using Kramers Kronig
   OMEGAMAX=  -1.0    maximum frequency
   DEG_THRESHOLD= 0.2000000E-02 threshold for treating states as degnerate
   RTIME   =   -0.100 relaxation time in fs
  (WPLASMAI=    0.000 imaginary part of plasma frequency in eV, 0.658/RTIME)
   DFIELD  = 0.0000000 0.0000000 0.0000000 field for delta impulse in time
 
  Optional k-point grid parameters
   LKPOINTS_OPT  =     F    use optional k-point grid
   KPOINTS_OPT_MODE=     1    mode for optional k-point grid
 
 Orbital magnetization related:
   ORBITALMAG=     F  switch on orbital magnetization
   LCHIMAG   =     F  perturbation theory with respect to B field
   DQ        =  0.001000  dq finite difference perturbation B field
   LLRAUG    =     F  two centre corrections for induced B field

 PEAD related settings:
   LPEAD      =     T    switch on PEAD
   IPEAD      =     4    finite difference order for dpsi/dk
   LCALCPOL   =     T    calculate macroscopic polarization
   LCALCEPS   =     F    calculate dielectric tensor
   EFIELD_PEAD=    0.0000    0.0000    0.0000
   SKIP_EDOTP =     F
   LRPA       =     F
   SKIP_SCF   =     F


--------------------------------------------------------------------------------------------------------


 Static calculation
 charge density and potential remain constant during run
 spin polarized calculation
 Variant of blocked Davidson
 Davidson routine will perform the subspace rotation
 perform sub-space diagonalisation
    after iterative eigenvector-optimisation
 no mixing
 using additional bands            93
 reciprocal scheme for non local part
 use partial core corrections
 calculate Harris-corrections to forces 
   (improved forces if not selfconsistent)
 use gradient corrections 
 WARNING: stress and forces are not correct
  (second derivative of E(xc) not defined)
 use of overlap-Matrix (Vanderbilt PP)
 Gauss-broadening in eV      SIGMA  =   0.05


--------------------------------------------------------------------------------------------------------


  energy-cutoff  :      850.00
  volume of cell :     1135.52
      direct lattice vectors                 reciprocal lattice vectors
    12.561372244 -0.000102703 -0.000000000     0.079609512  0.045961519  0.000000000
    -6.280570824 10.878517227  0.000000000     0.000000752  0.091924726  0.000000000
    -0.000000000  0.000000000  8.309775343     0.000000000  0.000000000  0.120340197

  length of vectors
    12.561372245 12.561357687  8.309775343     0.091924620  0.091924726  0.120340197


 
 old parameters found on file WAVECAR:
  energy-cutoff  :      850.00
  volume of cell :     1135.52
      direct lattice vectors                 reciprocal lattice vectors
    12.561372244 -0.000102703 -0.000000000     0.079609512  0.045961519  0.000000000
    -6.280570824 10.878517227  0.000000000     0.000000752  0.091924726  0.000000000
    -0.000000000  0.000000000  8.309775343     0.000000000  0.000000000  0.120340197

  length of vectors

 
 k-points in units of 2pi/SCALE and weight: K-Spacing Value to Generate K-Mesh: 0.04
   0.00000000  0.00000000  0.00000000       0.013
   0.01990238  0.01149038  0.00000000       0.013
   0.03980476  0.02298076  0.00000000       0.013
  -0.01990238 -0.01149038  0.00000000       0.013
   0.00000019  0.02298118  0.00000000       0.013
   0.01990257  0.03447156  0.00000000       0.013
   0.03980494  0.04596194  0.00000000       0.013
  -0.01990219  0.01149080  0.00000000       0.013
   0.00000038  0.04596236  0.00000000       0.013
   0.01990275  0.05745274  0.00000000       0.013
   0.03980513  0.06894312  0.00000000       0.013
  -0.01990200  0.03447198  0.00000000       0.013
  -0.00000019 -0.02298118  0.00000000       0.013
   0.01990219 -0.01149080  0.00000000       0.013
   0.03980457 -0.00000042  0.00000000       0.013
  -0.01990257 -0.03447156  0.00000000       0.013
   0.00000000  0.00000000  0.02406804       0.013
   0.01990238  0.01149038  0.02406804       0.013
   0.03980476  0.02298076  0.02406804       0.013
  -0.01990238 -0.01149038  0.02406804       0.013
   0.00000019  0.02298118  0.02406804       0.013
   0.01990257  0.03447156  0.02406804       0.013
   0.03980494  0.04596194  0.02406804       0.013
  -0.01990219  0.01149080  0.02406804       0.013
   0.00000038  0.04596236  0.02406804       0.013
   0.01990275  0.05745274  0.02406804       0.013
   0.03980513  0.06894312  0.02406804       0.013
  -0.01990200  0.03447198  0.02406804       0.013
  -0.00000019 -0.02298118  0.02406804       0.013
   0.01990219 -0.01149080  0.02406804       0.013
   0.03980457 -0.00000042  0.02406804       0.013
  -0.01990257 -0.03447156  0.02406804       0.013
   0.00000000  0.00000000  0.04813608       0.013
   0.01990238  0.01149038  0.04813608       0.013
   0.03980476  0.02298076  0.04813608       0.013
  -0.01990238 -0.01149038  0.04813608       0.013
   0.00000019  0.02298118  0.04813608       0.013
   0.01990257  0.03447156  0.04813608       0.013
   0.03980494  0.04596194  0.04813608       0.013
  -0.01990219  0.01149080  0.04813608       0.013
   0.00000038  0.04596236  0.04813608       0.013
   0.01990275  0.05745274  0.04813608       0.013
   0.03980513  0.06894312  0.04813608       0.013
  -0.01990200  0.03447198  0.04813608       0.013
  -0.00000019 -0.02298118  0.04813608       0.013
   0.01990219 -0.01149080  0.04813608       0.013
   0.03980457 -0.00000042  0.04813608       0.013
  -0.01990257 -0.03447156  0.04813608       0.013
   0.00000000  0.00000000 -0.04813608       0.013
   0.01990238  0.01149038 -0.04813608       0.013
   0.03980476  0.02298076 -0.04813608       0.013
  -0.01990238 -0.01149038 -0.04813608       0.013
   0.00000019  0.02298118 -0.04813608       0.013
   0.01990257  0.03447156 -0.04813608       0.013
   0.03980494  0.04596194 -0.04813608       0.013
  -0.01990219  0.01149080 -0.04813608       0.013
   0.00000038  0.04596236 -0.04813608       0.013
   0.01990275  0.05745274 -0.04813608       0.013
   0.03980513  0.06894312 -0.04813608       0.013
  -0.01990200  0.03447198 -0.04813608       0.013
  -0.00000019 -0.02298118 -0.04813608       0.013
   0.01990219 -0.01149080 -0.04813608       0.013
   0.03980457 -0.00000042 -0.04813608       0.013
  -0.01990257 -0.03447156 -0.04813608       0.013
   0.00000000  0.00000000 -0.02406804       0.013
   0.01990238  0.01149038 -0.02406804       0.013
   0.03980476  0.02298076 -0.02406804       0.013
  -0.01990238 -0.01149038 -0.02406804       0.013
   0.00000019  0.02298118 -0.02406804       0.013
   0.01990257  0.03447156 -0.02406804       0.013
   0.03980494  0.04596194 -0.02406804       0.013
  -0.01990219  0.01149080 -0.02406804       0.013
   0.00000038  0.04596236 -0.02406804       0.013
   0.01990275  0.05745274 -0.02406804       0.013
   0.03980513  0.06894312 -0.02406804       0.013
  -0.01990200  0.03447198 -0.02406804       0.013
  -0.00000019 -0.02298118 -0.02406804       0.013
   0.01990219 -0.01149080 -0.02406804       0.013
   0.03980457 -0.00000042 -0.02406804       0.013
  -0.01990257 -0.03447156 -0.02406804       0.013
 
 k-points in reciprocal lattice and weights: K-Spacing Value to Generate K-Mesh: 0.04
   0.00000000  0.00000000  0.00000000       0.013
   0.25000000  0.00000000  0.00000000       0.013
   0.50000000  0.00000000  0.00000000       0.013
  -0.25000000  0.00000000  0.00000000       0.013
   0.00000000  0.25000000  0.00000000       0.013
   0.25000000  0.25000000  0.00000000       0.013
   0.50000000  0.25000000  0.00000000       0.013
  -0.25000000  0.25000000  0.00000000       0.013
   0.00000000  0.50000000  0.00000000       0.013
   0.25000000  0.50000000  0.00000000       0.013
   0.50000000  0.50000000  0.00000000       0.013
  -0.25000000  0.50000000  0.00000000       0.013
   0.00000000 -0.25000000  0.00000000       0.013
   0.25000000 -0.25000000  0.00000000       0.013
   0.50000000 -0.25000000  0.00000000       0.013
  -0.25000000 -0.25000000  0.00000000       0.013
   0.00000000  0.00000000  0.20000000       0.013
   0.25000000  0.00000000  0.20000000       0.013
   0.50000000  0.00000000  0.20000000       0.013
  -0.25000000  0.00000000  0.20000000       0.013
   0.00000000  0.25000000  0.20000000       0.013
   0.25000000  0.25000000  0.20000000       0.013
   0.50000000  0.25000000  0.20000000       0.013
  -0.25000000  0.25000000  0.20000000       0.013
   0.00000000  0.50000000  0.20000000       0.013
   0.25000000  0.50000000  0.20000000       0.013
   0.50000000  0.50000000  0.20000000       0.013
  -0.25000000  0.50000000  0.20000000       0.013
   0.00000000 -0.25000000  0.20000000       0.013
   0.25000000 -0.25000000  0.20000000       0.013
   0.50000000 -0.25000000  0.20000000       0.013
  -0.25000000 -0.25000000  0.20000000       0.013
   0.00000000  0.00000000  0.40000000       0.013
   0.25000000  0.00000000  0.40000000       0.013
   0.50000000  0.00000000  0.40000000       0.013
  -0.25000000  0.00000000  0.40000000       0.013
   0.00000000  0.25000000  0.40000000       0.013
   0.25000000  0.25000000  0.40000000       0.013
   0.50000000  0.25000000  0.40000000       0.013
  -0.25000000  0.25000000  0.40000000       0.013
   0.00000000  0.50000000  0.40000000       0.013
   0.25000000  0.50000000  0.40000000       0.013
   0.50000000  0.50000000  0.40000000       0.013
  -0.25000000  0.50000000  0.40000000       0.013
   0.00000000 -0.25000000  0.40000000       0.013
   0.25000000 -0.25000000  0.40000000       0.013
   0.50000000 -0.25000000  0.40000000       0.013
  -0.25000000 -0.25000000  0.40000000       0.013
   0.00000000  0.00000000 -0.40000000       0.013
   0.25000000  0.00000000 -0.40000000       0.013
   0.50000000  0.00000000 -0.40000000       0.013
  -0.25000000  0.00000000 -0.40000000       0.013
   0.00000000  0.25000000 -0.40000000       0.013
   0.25000000  0.25000000 -0.40000000       0.013
   0.50000000  0.25000000 -0.40000000       0.013
  -0.25000000  0.25000000 -0.40000000       0.013
   0.00000000  0.50000000 -0.40000000       0.013
   0.25000000  0.50000000 -0.40000000       0.013
   0.50000000  0.50000000 -0.40000000       0.013
  -0.25000000  0.50000000 -0.40000000       0.013
   0.00000000 -0.25000000 -0.40000000       0.013
   0.25000000 -0.25000000 -0.40000000       0.013
   0.50000000 -0.25000000 -0.40000000       0.013
  -0.25000000 -0.25000000 -0.40000000       0.013
   0.00000000  0.00000000 -0.20000000       0.013
   0.25000000  0.00000000 -0.20000000       0.013
   0.50000000  0.00000000 -0.20000000       0.013
  -0.25000000  0.00000000 -0.20000000       0.013
   0.00000000  0.25000000 -0.20000000       0.013
   0.25000000  0.25000000 -0.20000000       0.013
   0.50000000  0.25000000 -0.20000000       0.013
  -0.25000000  0.25000000 -0.20000000       0.013
   0.00000000  0.50000000 -0.20000000       0.013
   0.25000000  0.50000000 -0.20000000       0.013
   0.50000000  0.50000000 -0.20000000       0.013
  -0.25000000  0.50000000 -0.20000000       0.013
   0.00000000 -0.25000000 -0.20000000       0.013
   0.25000000 -0.25000000 -0.20000000       0.013
   0.50000000 -0.25000000 -0.20000000       0.013
  -0.25000000 -0.25000000 -0.20000000       0.013
 
 position of ions in fractional coordinates (direct lattice) 
   0.33507784  0.33150760  0.58703270
   0.66849288  0.00356906  0.58703234
   0.99642958  0.66492389  0.58703152
   0.66492216  0.66849240  0.08703270
   0.33150712  0.99643094  0.08703234
   0.00357042  0.33507611  0.08703152
   0.42410863  0.26102735  0.44425928
   0.73897299  0.16307786  0.44425840
   0.83691931  0.57589164  0.44426078
   0.57589137  0.73897265  0.94425928
   0.26102701  0.83692214  0.94425840
   0.16308069  0.42410836  0.94426078
   0.42717968  0.15447871  0.22990213
   0.84552067  0.27269687  0.22990017
   0.72730031  0.57282144  0.22990383
   0.57282032  0.84552129  0.72990213
   0.15447933  0.72730313  0.72990017
   0.27269969  0.42717856  0.72990383
   0.40250050  0.49183691  0.44335237
   0.50816421  0.91066417  0.44335021
   0.08933526  0.59750155  0.44334912
   0.59749950  0.50816309  0.94335237
   0.49183579  0.08933583  0.94335021
   0.91066474  0.40249845  0.94334912
   0.50480729  0.60310310  0.22773045
   0.39689556  0.90170446  0.22772913
   0.09829397  0.49519101  0.22772896
   0.49519271  0.39689690  0.72773045
   0.60310444  0.09829554  0.72772913
   0.90170603  0.50480899  0.72772896
   0.17453023  0.23683941  0.44789613
   0.76316153  0.93768947  0.44789829
   0.06230720  0.82547166  0.44789481
   0.82546977  0.76316059  0.94789613
   0.23683847  0.06231053  0.94789829
   0.93769280  0.17452834  0.94789481
   0.07238202  0.24366442  0.23076606
   0.75633461  0.82871721  0.23076727
   0.17128332  0.92761969  0.23076688
   0.92761798  0.75633558  0.73076606
   0.24366539  0.17128279  0.73076727
   0.82871668  0.07238031  0.73076688
   0.37059275  0.18313482  0.33149845
   0.81686711  0.18745650  0.33149572
   0.81253909  0.62940754  0.33149961
   0.62940725  0.81686518  0.83149845
   0.18313289  0.81254350  0.83149572
   0.18746091  0.37059246  0.83149961
   0.47389503  0.51374577  0.32318695
   0.48625544  0.96014890  0.32318423
   0.03984934  0.52610457  0.32318626
   0.52610497  0.48625423  0.82318695
   0.51374456  0.03985110  0.82318423
   0.96015066  0.47389543  0.82318626
   0.14423255  0.29443643  0.35002356
   0.70556359  0.84979291  0.35002304
   0.15020537  0.85577156  0.35002497
   0.85576745  0.70556357  0.85002356
   0.29443641  0.15020709  0.85002304
   0.84979463  0.14422844  0.85002497
   0.26969588  0.13961090  0.32362784
   0.86039260  0.13008384  0.32362909
   0.86990992  0.73030583  0.32363627
   0.73030412  0.86038910  0.82362784
   0.13960740  0.86991616  0.82362909
   0.13009008  0.26969417  0.82363627
   0.51081570  0.45148497  0.30315568
   0.54851842  0.05933036  0.30314847
   0.94066635  0.48918148  0.30315630
   0.48918430  0.54851503  0.80315568
   0.45148158  0.94066964  0.80314847
   0.05933365  0.51081852  0.80315630
   0.18136914  0.39397479  0.36682830
   0.60602647  0.78739192  0.36683316
   0.21260850  0.81863769  0.36683681
   0.81863086  0.60602521  0.86682830
   0.39397353  0.21260808  0.86683316
   0.78739150  0.18136231  0.86683681
   0.57740109  0.30668882  0.49791033
   0.69331048  0.27070770  0.49790685
   0.72929019  0.42259794  0.49791004
   0.42259891  0.69331118  0.99791033
   0.30668952  0.72929230  0.99790685
   0.27070981  0.57740206  0.99791004
   0.66666854  0.33332972  0.66018247
   0.33333146  0.66667028  0.16018247
   0.35905967  0.60322320  0.49752022
   0.39677639  0.75583831  0.49751913
   0.24416117  0.64094033  0.49751736
   0.64094033  0.39677680  0.99752022
   0.60322361  0.24416169  0.99751913
   0.75583883  0.35905967  0.99751736
   0.33333031  0.66666795  0.65983226
   0.66666969  0.33333205  0.15983226
   0.02757202  0.08955404  0.17515497
   0.91044500  0.93801762  0.17515345
   0.06198170  0.97242703  0.17515274
   0.97242798  0.91044596  0.67515497
   0.08955500  0.06198238  0.67515345
   0.93801830  0.02757297  0.67515274
   0.99999933  0.00000117  0.01292332
   0.00000067  0.99999883  0.51292332
   0.66666746  0.33333206  0.53722672
   0.33333254  0.66666794  0.03722672
   0.33333165  0.66666808  0.53679992
   0.66666835  0.33333192  0.03679992
   0.99999924  0.00000013  0.13590468
   0.00000076  0.99999987  0.63590468
 
 position of ions in cartesian coordinates  (Angst):
   2.12698046  3.60627676  4.87810983
   8.37477222  0.03875738  4.87810687
   8.34042125  7.23328365  4.87810005
   4.15382096  7.27213777  0.72322216
  -2.09397080 10.83965715  0.72321919
  -2.05961983  3.64513087  0.72321238
   3.68798563  2.83954700  3.69169482
   8.25829274  1.77396939  3.69168751
   6.89592673  6.26476117  3.69170724
   2.59281579  8.03886752  7.84658249
  -1.97749132  9.10444513  7.84657518
  -0.61512531  4.61365336  7.84659491
   4.39574849  1.68045545  1.91043509
   8.90820781  2.96645077  1.91041874
   5.53824426  6.23137321  1.91044921
   1.88505293  9.19795908  6.06532276
  -2.62740639  7.91196375  6.06530642
   0.74255716  4.64704131  6.06533688
   1.96694209  5.35041497  3.68415856
   0.66374905  9.90662366  3.68414064
  -2.63047732  6.49992176  3.68413157
   4.31385933  5.52799955  7.83904624
   5.61705237  0.97179086  7.83902831
   8.91127874  4.37849276  7.83901924
   2.55324053  6.56081567  1.89238888
  -0.67766588  9.80916676  1.89237792
  -1.87537505  5.38693384  1.89237647
   3.72756089  4.31759886  6.04727655
   6.95846730  1.06924777  6.04726560
   8.15617647  5.49148068  6.04726414
   0.70485248  2.57644369  3.72191618
   3.69713101 10.20059264  3.72193420
  -4.40176936  8.97990131  3.72190528
   5.57594894  8.30197083  7.87680385
   2.58367041  0.67782188  7.87682188
  10.68257078  1.89851322  7.87679295
  -0.62113409  2.65070012  1.91761413
   4.29578342  9.01513682  1.91762418
  -3.67442763 10.09110918  1.91762092
   6.90193551  8.22771441  6.07250181
   1.98501800  1.86327771  6.07251185
   9.95522905  0.78730534  6.07250859
   3.50496229  1.99219719  2.75467766
   9.08363801  2.03916488  2.75465496
   6.25356727  6.84693736  2.75468731
   2.77583913  8.88621734  6.90956533
[...]
     -1.97749      9.10445      7.84658        -0.000907      0.000381     -0.001718
     -0.61513      4.61365      7.84659         0.002025     -0.000166     -0.000164
      4.39575      1.68046      1.91044         0.001394      0.000990      0.001739
      8.90821      2.96645      1.91042        -0.000817     -0.000542      0.000279
      5.53824      6.23137      1.91045        -0.001195     -0.001385      0.002080
      1.88505      9.19796      6.06532        -0.001366     -0.000908      0.001677
     -2.62741      7.91196      6.06531         0.000824      0.000600      0.000245
      0.74256      4.64704      6.06534         0.001245      0.001472      0.002093
      1.96694      5.35041      3.68416         0.000980      0.002313     -0.000722
      0.66375      9.90662      3.68414        -0.001268     -0.000962     -0.000947
     -2.63048      6.49992      3.68413         0.000672      0.000691     -0.000956
      4.31386      5.52800      7.83905        -0.000924     -0.002267     -0.000820
      5.61705      0.97179      7.83903         0.001343      0.000995     -0.000895
      8.91128      4.37849      7.83902        -0.000687     -0.000583     -0.000963
      2.55324      6.56082      1.89239        -0.000633      0.000369      0.000496
     -0.67767      9.80917      1.89238         0.000634     -0.000600      0.000474
     -1.87538      5.38693      1.89238         0.000650     -0.000204     -0.000062
      3.72756      4.31760      6.04728         0.000639     -0.000308      0.000471
      6.95847      1.06925      6.04727        -0.000588      0.000685      0.000470
      8.15618      5.49148      6.04726        -0.000600      0.000290     -0.000107
      0.70485      2.57644      3.72192         0.000600     -0.000089     -0.001104
      3.69713     10.20059      3.72193         0.000857     -0.001588     -0.000471
     -4.40177      8.97990      3.72191        -0.001240      0.000832     -0.000348
      5.57595      8.30197      7.87680        -0.000518      0.000115     -0.001065
      2.58367      0.67782      7.87682        -0.000893      0.001682     -0.000484
     10.68257      1.89851      7.87679         0.001299     -0.000747     -0.000427
     -0.62113      2.65070      1.91761         0.001669     -0.001893      0.000629
      4.29578      9.01514      1.91762         0.000736      0.001336      0.001563
     -3.67443     10.09111      1.91762        -0.002447      0.000779      0.001887
      6.90194      8.22771      6.07250        -0.001619      0.001949      0.000619
      1.98502      1.86328      6.07251        -0.000685     -0.001264      0.001489
      9.95523      0.78731      6.07251         0.002448     -0.000686      0.001877
      3.50496      1.99220      2.75468        -0.003371     -0.001808     -0.001250
      9.08364      2.03916      2.75465         0.002595     -0.002208      0.000012
      6.25357      6.84694      2.75469         0.000929      0.004075      0.000112
      2.77584      8.88622      6.90957         0.003350      0.001727     -0.001181
     -2.80284      8.83925      6.90954        -0.002618      0.002164      0.000024
      0.02723      4.03148      6.90957        -0.000898     -0.004175      0.000070
      2.72616      5.58874      2.68561         0.001960     -0.002248      0.000507
      0.07775     10.44495      2.68559         0.000476      0.003043     -0.000403
     -2.80367      5.72323      2.68561        -0.003081     -0.001513     -0.000082
      3.55465      5.28967      6.84050        -0.001966      0.002202      0.000550
      6.20305      0.43347      6.84048        -0.000461     -0.003133     -0.000431
      9.08448      5.15518      6.84049         0.003060      0.001437     -0.000017
     -0.03747      3.20302      2.90862         0.000011      0.004668     -0.000266
      3.52566      9.24441      2.90861        -0.003854     -0.001011      0.000775
     -3.48795      9.30951      2.90863         0.004268     -0.002148     -0.000448
      6.31827      7.67540      7.06350        -0.000029     -0.004750     -0.000274
      2.75514      1.63400      7.06350         0.003841      0.000901      0.000850
      9.76875      1.56890      7.06352        -0.004316      0.002127     -0.000460
      2.51091      1.51873      2.68927         0.002573      0.001825      0.000415
      9.99071      1.41503      2.68929        -0.003765      0.001947      0.000234
      6.34052      7.94456      2.68934        -0.000490     -0.003653      0.000664
      3.76989      9.35968      6.84416        -0.002640     -0.001850      0.000417
     -3.70991      9.46338      6.84417         0.003765     -0.001946      0.000225
     -0.05972      2.93386      6.84423         0.000478      0.003541      0.000722
      3.58096      4.91143      2.51916        -0.002375      0.002061     -0.000525
      6.51752      0.64537      2.51910        -0.000255     -0.003446     -0.000738
      8.74372      5.32147      2.51916         0.003291      0.001354     -0.000507
      2.69984      5.96698      6.67404         0.002369     -0.002069     -0.000530
     -0.23671     10.23304      6.67398         0.000233      0.003322     -0.000713
     -2.46292      5.55694      6.67405        -0.003375     -0.001374     -0.000500
     -0.19614      4.28584      3.04826         0.003164     -0.002223     -0.001590
      2.66725      8.56559      3.04830         0.000729      0.003346     -0.001424
     -2.47086      8.90554      3.04833        -0.002627     -0.001305     -0.001112
      6.47694      6.59257      7.20315        -0.003188      0.002139     -0.001563
      3.61355      2.31282      7.20319        -0.000767     -0.003401     -0.001459
      8.75166      1.97287      7.20322         0.002627      0.001324     -0.001144
      5.32677      3.33626      4.13752        -0.000268     -0.000674     -0.001958
      7.00873      2.94483      4.13749         0.000508      0.000416     -0.001827
      6.50673      4.59716      4.13752        -0.000169      0.001068     -0.002136
      0.95403      7.54215      8.29241         0.000255      0.000645     -0.001955
     -0.72793      7.93359      8.29238        -0.000552     -0.000420     -0.001834
     -0.22593      6.28125      8.29241         0.000161     -0.001092     -0.002143
      6.28077      3.62606      5.48597         0.000044      0.000083      0.002224
      0.00003      7.25235      1.33108        -0.000073     -0.000080      0.002224
      0.72170      6.56214      4.13428         0.000724     -0.000003     -0.001452
      0.23696      8.22236      4.13427        -0.000695      0.000694     -0.001340
     -0.95847      6.97246      4.13426        -0.000681     -0.000882     -0.001399
      5.55911      4.31628      8.28917        -0.000778      0.000005     -0.001458
      6.04384      2.65606      8.28916         0.000684     -0.000727     -0.001350
      7.23927      3.90596      8.28915         0.000674      0.000853     -0.001400
      0.00003      7.25232      5.48306        -0.000205      0.000029      0.003254
      6.28077      3.62609      1.32817         0.000174     -0.000024      0.003251
     -0.21611      0.97421      1.45550        -0.000156      0.000329      0.003197
      5.54515     10.20415      1.45549        -0.000087     -0.000025      0.002966
     -5.32882     10.57856      1.45548         0.000238     -0.000179      0.003073
      6.49691      9.90420      5.61039         0.000152     -0.000414      0.003223
      0.73565      0.67427      5.61037         0.000067     -0.000006      0.002953
     11.60962      0.29986      5.61037        -0.000266      0.000156      0.003078
     12.56136     -0.00009      0.10739        -0.000039     -0.000153     -0.001204
     -6.28056     10.87850      4.26228         0.000032      0.000130     -0.001245
      6.28074      3.62609      4.46423         0.000689     -0.001583      0.000167
      0.00006      7.25232      0.30935        -0.000607      0.001592      0.000242
      0.00005      7.25233      4.46069        -0.000609      0.000690      0.000884
      6.28075      3.62609      0.30580         0.000690     -0.000677      0.000975
     12.56136     -0.00010      1.12934        -0.000428      0.000128      0.001044
     -6.28056     10.87852      5.28423         0.000478     -0.000032      0.000985
 -----------------------------------------------------------------------------------
    total drift:                                0.000988      0.001314     -0.000026


--------------------------------------------------------------------------------------------------------



  FREE ENERGIE OF THE ION-ELECTRON SYSTEM (eV)
  ---------------------------------------------------
  free  energy   TOTEN  =      -670.69813691 eV

  energy  without entropy=     -670.69813691  energy(sigma->0) =     -670.69813691
 


--------------------------------------------------------------------------------------------------------


    POTLOK:  cpu time      1.9734: real time      1.9734


--------------------------------------------------------------------------------------------------------


     LOOP+:  cpu time   6035.6703: real time   6022.6327
    4ORBIT:  cpu time      0.0000: real time      0.0000



 total charge

# of ion       s       p       d       tot
------------------------------------------
    1        0.276   0.344   7.084   7.704
    2        0.276   0.344   7.084   7.704
    3        0.276   0.344   7.084   7.704
    4        0.276   0.344   7.083   7.704
    5        0.276   0.344   7.084   7.704
    6        0.276   0.344   7.084   7.704
    7        1.568   3.570   0.000   5.138
    8        1.568   3.570   0.000   5.138
    9        1.568   3.570   0.000   5.138
   10        1.568   3.570   0.000   5.138
   11        1.568   3.570   0.000   5.138
   12        1.568   3.570   0.000   5.138
   13        1.571   3.562   0.000   5.133
   14        1.571   3.562   0.000   5.133
   15        1.571   3.562   0.000   5.133
   16        1.571   3.562   0.000   5.133
   17        1.571   3.562   0.000   5.133
   18        1.571   3.562   0.000   5.133
   19        1.568   3.566   0.000   5.134
   20        1.568   3.566   0.000   5.134
   21        1.568   3.566   0.000   5.134
   22        1.568   3.566   0.000   5.134
   23        1.568   3.566   0.000   5.134
   24        1.568   3.566   0.000   5.134
   25        1.571   3.563   0.000   5.134
   26        1.571   3.563   0.000   5.134
   27        1.571   3.563   0.000   5.134
   28        1.571   3.563   0.000   5.134
   29        1.571   3.563   0.000   5.134
   30        1.571   3.563   0.000   5.134
   31        1.571   3.564   0.000   5.134
   32        1.571   3.564   0.000   5.134
   33        1.571   3.564   0.000   5.134
   34        1.571   3.564   0.000   5.134
   35        1.571   3.564   0.000   5.134
   36        1.571   3.564   0.000   5.134
   37        1.568   3.568   0.000   5.136
   38        1.568   3.568   0.000   5.136
   39        1.568   3.568   0.000   5.136
   40        1.568   3.568   0.000   5.136
   41        1.568   3.568   0.000   5.136
   42        1.568   3.568   0.000   5.136
   43        0.876   1.709   0.000   2.585
   44        0.876   1.709   0.000   2.585
   45        0.876   1.709   0.000   2.585
   46        0.876   1.709   0.000   2.585
   47        0.876   1.709   0.000   2.585
   48        0.876   1.709   0.000   2.585
   49        0.875   1.708   0.000   2.583
   50        0.875   1.708   0.000   2.583
   51        0.875   1.708   0.000   2.583
   52        0.875   1.708   0.000   2.583
   53        0.875   1.708   0.000   2.583
   54        0.875   1.708   0.000   2.583
   55        0.875   1.709   0.000   2.584
   56        0.875   1.709   0.000   2.584
   57        0.875   1.709   0.000   2.584
   58        0.875   1.709   0.000   2.584
   59        0.875   1.709   0.000   2.584
   60        0.875   1.709   0.000   2.584
   61        0.640   0.048   0.000   0.688
   62        0.640   0.048   0.000   0.688
   63        0.640   0.048   0.000   0.688
   64        0.640   0.048   0.000   0.688
   65        0.640   0.048   0.000   0.688
   66        0.640   0.048   0.000   0.688
   67        0.640   0.047   0.000   0.688
   68        0.640   0.047   0.000   0.688
   69        0.640   0.047   0.000   0.688
   70        0.640   0.047   0.000   0.688
   71        0.640   0.047   0.000   0.688
   72        0.640   0.047   0.000   0.688
   73        0.640   0.048   0.000   0.688
   74        0.640   0.048   0.000   0.688
   75        0.640   0.048   0.000   0.688
   76        0.640   0.048   0.000   0.688
   77        0.640   0.048   0.000   0.688
   78        0.640   0.048   0.000   0.688
   79        0.581   0.088   0.000   0.669
   80        0.581   0.088   0.000   0.669
   81        0.581   0.088   0.000   0.669
   82        0.581   0.088   0.000   0.669
   83        0.581   0.088   0.000   0.669
   84        0.581   0.088   0.000   0.669
   85        0.626   0.084   0.000   0.710
   86        0.626   0.084   0.000   0.710
   87        0.579   0.087   0.000   0.666
   88        0.579   0.087   0.000   0.666
   89        0.579   0.087   0.000   0.666
   90        0.579   0.087   0.000   0.666
   91        0.579   0.087   0.000   0.666
   92        0.579   0.087   0.000   0.666
   93        0.625   0.084   0.000   0.709
   94        0.625   0.084   0.000   0.709
   95        0.580   0.087   0.000   0.668
   96        0.580   0.087   0.000   0.668
   97        0.580   0.087   0.000   0.668
   98        0.580   0.087   0.000   0.668
   99        0.580   0.087   0.000   0.668
  100        0.580   0.087   0.000   0.668
  101        0.625   0.084   0.000   0.709
  102        0.625   0.084   0.000   0.709
  103        1.224   2.807   0.000   4.031
  104        1.224   2.807   0.000   4.031
  105        1.223   2.803   0.000   4.027
  106        1.223   2.803   0.000   4.027
  107        1.224   2.805   0.000   4.029
  108        1.224   2.805   0.000   4.029
--------------------------------------------------
tot        106.983 180.946  42.501 330.431



 magnetization (x)

# of ion       s       p       d       tot
------------------------------------------
    1        0.009   0.007   2.597   2.614
    2        0.009   0.007   2.597   2.614
    3        0.009   0.007   2.597   2.614
    4       -0.009  -0.007  -2.597  -2.614
    5       -0.009  -0.007  -2.597  -2.614
    6       -0.009  -0.007  -2.597  -2.614
    7        0.004   0.033   0.000   0.037
    8        0.004   0.033   0.000   0.037
    9        0.004   0.033   0.000   0.037
   10       -0.004  -0.033   0.000  -0.037
   11       -0.004  -0.033   0.000  -0.037
   12       -0.004  -0.033   0.000  -0.037
   13       -0.004  -0.038   0.000  -0.042
   14       -0.004  -0.038   0.000  -0.042
   15       -0.004  -0.038   0.000  -0.042
   16        0.004   0.038   0.000   0.042
   17        0.004   0.038   0.000   0.042
   18        0.004   0.038   0.000   0.042
   19        0.004   0.032   0.000   0.037
   20        0.004   0.032   0.000   0.037
   21        0.004   0.032   0.000   0.037
   22       -0.004  -0.032   0.000  -0.037
   23       -0.004  -0.032   0.000  -0.037
   24       -0.004  -0.032   0.000  -0.037
   25       -0.004  -0.037   0.000  -0.041
   26       -0.004  -0.037   0.000  -0.041
   27       -0.004  -0.037   0.000  -0.041
   28        0.004   0.037   0.000   0.041
   29        0.004   0.037   0.000   0.041
   30        0.004   0.037   0.000   0.041
   31        0.004   0.038   0.000   0.042
   32        0.004   0.038   0.000   0.042
   33        0.004   0.038   0.000   0.042
   34       -0.004  -0.038   0.000  -0.042
   35       -0.004  -0.038   0.000  -0.042
   36       -0.004  -0.038   0.000  -0.042
   37       -0.004  -0.032   0.000  -0.037
   38       -0.004  -0.032   0.000  -0.037
   39       -0.004  -0.032   0.000  -0.037
   40        0.004   0.032   0.000   0.037
   41        0.004   0.032   0.000   0.037
   42        0.004   0.032   0.000   0.037
   43        0.000  -0.000   0.000   0.000
   44        0.000  -0.000   0.000   0.000
   45        0.000  -0.000   0.000   0.000
   46       -0.000   0.000   0.000  -0.000
   47       -0.000   0.000   0.000  -0.000
   48       -0.000   0.000   0.000  -0.000
   49        0.000  -0.001   0.000  -0.001
   50        0.000  -0.001   0.000  -0.001
   51        0.000  -0.001   0.000  -0.001
   52       -0.000   0.001   0.000   0.001
   53       -0.000   0.001   0.000   0.001
   54       -0.000   0.001   0.000   0.001
   55       -0.000   0.001   0.000   0.001
   56       -0.000   0.001   0.000   0.001
   57       -0.000   0.001   0.000   0.001
   58        0.000  -0.001   0.000  -0.001
   59        0.000  -0.001   0.000  -0.001
   60        0.000  -0.001   0.000  -0.001
   61       -0.000   0.000   0.000  -0.000
   62       -0.000   0.000   0.000  -0.000
   63       -0.000   0.000   0.000  -0.000
   64        0.000  -0.000   0.000   0.000
   65        0.000  -0.000   0.000   0.000
   66        0.000  -0.000   0.000   0.000
   67       -0.000  -0.000   0.000  -0.000
   68       -0.000  -0.000   0.000  -0.000
   69       -0.000  -0.000   0.000  -0.000
   70        0.000   0.000   0.000   0.000
   71        0.000   0.000   0.000   0.000
   72        0.000   0.000   0.000   0.000
   73        0.000  -0.000   0.000   0.000
   74        0.000  -0.000   0.000   0.000
   75        0.000  -0.000   0.000   0.000
   76       -0.000   0.000   0.000  -0.000
   77       -0.000   0.000   0.000  -0.000
   78       -0.000   0.000   0.000  -0.000
   79       -0.000   0.000   0.000   0.000
   80       -0.000   0.000   0.000   0.000
   81       -0.000   0.000   0.000   0.000
   82        0.000  -0.000   0.000  -0.000
   83        0.000  -0.000   0.000  -0.000
   84        0.000  -0.000   0.000  -0.000
   85       -0.000   0.000   0.000   0.000
   86        0.000  -0.000   0.000  -0.000
   87        0.000   0.000   0.000   0.000
   88        0.000   0.000   0.000   0.000
   89        0.000   0.000   0.000   0.000
   90       -0.000  -0.000   0.000  -0.000
   91       -0.000  -0.000   0.000  -0.000
   92       -0.000  -0.000   0.000  -0.000
   93       -0.000   0.000   0.000   0.000
   94        0.000  -0.000   0.000  -0.000
   95        0.000  -0.000   0.000  -0.000
   96        0.000  -0.000   0.000  -0.000
   97        0.000  -0.000   0.000  -0.000
   98       -0.000   0.000   0.000   0.000
   99       -0.000   0.000   0.000   0.000
  100       -0.000   0.000   0.000   0.000
  101        0.000  -0.000   0.000  -0.000
  102       -0.000   0.000   0.000   0.000
  103        0.000   0.001   0.000   0.001
  104       -0.000  -0.001   0.000  -0.001
  105        0.000   0.001   0.000   0.001
  106       -0.000  -0.001   0.000  -0.001
  107       -0.000  -0.001   0.000  -0.001
  108        0.000   0.001   0.000   0.001
--------------------------------------------------
tot         -0.000   0.000  -0.000  -0.000
 

 total amount of memory used by VASP MPI-rank0  4797753. kBytes
=======================================================================

   base      :      30000. kBytes
   nonl-proj :    3798178. kBytes
   fftplans  :      27244. kBytes
   grid      :     108764. kBytes
   one-center:       3359. kBytes
   wavefun   :     830208. kBytes
 
  
  
 General timing and accounting informations for this job:
 ========================================================
  
                  Total CPU time used (sec):     6531.651
                            User time (sec):     6491.955
                          System time (sec):       39.697
                         Elapsed time (sec):     6519.398
  
                   Maximum memory used (kb):     4009920.
                   Average memory used (kb):          N/A
  
                          Minor page faults:      1867053
                          Major page faults:            4
                 Voluntary context switches:        95360
