 vasp.6.2.1 16May21 (build Oct 06 2021 15:23:54) complex                        
  
 executed on     Narwhal-SCI@Navy date 2021.10.18  09:29:53
 running  128 mpi-ranks, with    1 threads/rank
 distrk:  each k-point on   64 cores,    2 groups
 distr:  one band on NCORE=   1 cores,   64 groups


--------------------------------------------------------------------------------------------------------


 INCAR:
   IVDW = 11           (DFT-D3 method of method with no damping)
   ISPIN = 2 (Spin polarised DFT)
   MAGMOM = 10 -10 -10 10 80*0.0d0
   ISTART = 1            (Read existing wavefunction
   ICHARG = 11         (Non-self-consistent: GGA/LDA band structures)
   LORBIT = 11
   LASPH = T
   GGA_COMPAT = .FALSE.
   LREAL = .FALSE.       (Projection operators: automatic)
   ENCUT = 708
   ENAUG = 708
   PREC = Accurate     (Precision level)
   LMAXMIX = 4
   ADDGRID = .TRUE.        (Increase grid
   LPLANE = .TRUE.      (Real space distribution
   NWRITE = 2           (Medium-level output)
   KPAR = 2           (Divides k-grid into separate groups)
   NSW = 000          (number of ionic steps)
   ISMEAR = 0            (gaussian smearing method )
   SIGMA = 0.05         (please check the width of the smearing)
   IBRION = -1            (Algorithm: 0-MD
   ISIF = 3            (optimize atomic coordinates and lattice parameters)
   EDIFFG = -0.005       (Ionic convergence
   EDIFF = 1.0d-10
   LDAU = .TRUE.
   LDAUTYPE = 2
   LDAUL = 2 -1 -1       -1  -1
   LDAUU = 6.5 0.00 0.00  0.00 0.0
   LDAUJ = 0.00 0.00 0.00 0.00 0.0
   LDAUPRINT = 2
   LCALCPOL = T

 POTCAR:    PAW_PBE Mn_pv 02Aug2007               
 POTCAR:    PAW_PBE O 08Apr2002                   
 POTCAR:    PAW_PBE C 08Apr2002                   
 POTCAR:    PAW_PBE H 15Jun2001                   
 POTCAR:    PAW_PBE N 08Apr2002                   
 POTCAR:    PAW_PBE Mn_pv 02Aug2007               
   SHA256 =  c79df11ab18a0e3347296df6ded47bb5f18b2e4fbd621d0b5280d2eae24c30a0 Mn_pv/POTCAR          
   COPYR  = (c) Copyright 02Aug2007 Georg Kresse                                                    
   COPYR  = This file is part of the software VASP. Any use, copying, and all other rights are regul
   COPYR  = If you do not have a valid VASP license, you may not use, copy or distribute this file. 
   VRHFIN =Mn: 3p4s3d                                                                               
   LEXCH  = PE                                                                                      
   EATOM  =  2025.2664 eV,  148.8529 Ry                                                             
                                                                                                    
   TITEL  = PAW_PBE Mn_pv 02Aug2007                                                                 
   LULTRA =        F    use ultrasoft PP ?                                                          
   IUNSCR =        1    unscreen: 0-lin 1-nonlin 2-no                                               
   RPACOR =    2.080    partial core radius                                                         
   POMASS =   54.938; ZVAL   =   13.000    mass and valenz                                          
   RCORE  =    2.300    outmost cutoff radius                                                       
   RWIGS  =    2.500; RWIGS  =    1.323    wigner-seitz radius (au A)                               
   ENMAX  =  269.864; ENMIN  =  202.398 eV                                                          
   ICORE  =        3    local potential                                                             
   LCOR   =        T    correct aug charges                                                         
   LPAW   =        T    paw PP                                                                      
   EAUG   =  569.085                                                                                
   DEXC   =    0.000                                                                                
   RMAX   =    2.343    core radius for proj-oper                                                   
   RAUG   =    1.300    factor for augmentation sphere                                              
   RDEP   =    2.338    radius for radial grids                                                     
   RDEPT  =    1.798    core radius for aug-charge                                                  
                                                                                                    
   Atomic configuration                                                                             
    8 entries                                                                                       
     n  l   j            E        occ.                                                              
     1  0  0.50     -6424.8287   2.0000                                                             
     2  0  0.50      -739.1154   2.0000                                                             
     2  1  1.50      -625.3949   6.0000                                                             
     3  0  0.50       -81.6100   2.0000                                                             
     3  1  1.50       -50.4667   6.0000                                                             
     3  2  2.50        -3.3745   6.0000                                                             
     4  0  0.50        -4.1331   1.0000                                                             
     4  3  2.50        -1.3606   0.0000                                                             
   Description                                                                                      
     l       E           TYP  RCUT    TYP  RCUT                                                     
     1    -50.4666628     23  2.000                                                                 
     1     -1.3605826     23  2.000                                                                 
     2     -3.3744729     23  2.300                                                                 
     2     -4.7350555     23  2.300                                                                 
     0     -4.1331431     23  2.300                                                                 
     0      7.6656591     23  2.300                                                                 
     3      9.5240782     23  2.300                                                                 
  local pseudopotential read in
  partial core-charges read in
  partial kinetic energy density read in
  atomic valenz-charges read in
  non local Contribution for L=           1  read in
    real space projection operators read in
  non local Contribution for L=           1  read in
    real space projection operators read in
  non local Contribution for L=           2  read in
    real space projection operators read in
  non local Contribution for L=           2  read in
    real space projection operators read in
  non local Contribution for L=           0  read in
    real space projection operators read in
  non local Contribution for L=           0  read in
    real space projection operators read in
    PAW grid and wavefunctions read in
 
   number of l-projection  operators is LMAX  =           6
   number of lm-projection operators is LMMAX =          18
 
 POTCAR:    PAW_PBE O 08Apr2002                   
   SHA256 =  818f92134a0a090dccd8ba1447fa70422a3b330e708bb4f08108d8ae51209ddf O/POTCAR              
   COPYR  = (c) Copyright 08Apr2002 Georg Kresse                                                    
   COPYR  = This file is part of the software VASP. Any use, copying, and all other rights are regul
   COPYR  = If you do not have a valid VASP license, you may not use, copy or distribute this file. 
   VRHFIN =O: s2p4                                                                                  
   LEXCH  = PE                                                                                      
   EATOM  =   432.3788 eV,   31.7789 Ry                                                             
                                                                                                    
   TITEL  = PAW_PBE O 08Apr2002                                                                     
   LULTRA =        F    use ultrasoft PP ?                                                          
   IUNSCR =        1    unscreen: 0-lin 1-nonlin 2-no                                               
   RPACOR =    1.200    partial core radius                                                         
   POMASS =   16.000; ZVAL   =    6.000    mass and valenz                                          
   RCORE  =    1.520    outmost cutoff radius                                                       
   RWIGS  =    1.550; RWIGS  =    0.820    wigner-seitz radius (au A)                               
   ENMAX  =  400.000; ENMIN  =  300.000 eV                                                          
   ICORE  =        2    local potential                                                             
   LCOR   =        T    correct aug charges                                                         
   LPAW   =        T    paw PP                                                                      
   EAUG   =  605.392                                                                                
   DEXC   =    0.000                                                                                
   RMAX   =    1.553    core radius for proj-oper                                                   
   RAUG   =    1.300    factor for augmentation sphere                                              
   RDEP   =    1.550    radius for radial grids                                                     
   RDEPT  =    1.329    core radius for aug-charge                                                  
                                                                                                    
   Atomic configuration                                                                             
    4 entries                                                                                       
     n  l   j            E        occ.                                                              
     1  0  0.50      -514.6923   2.0000                                                             
     2  0  0.50       -23.9615   2.0000                                                             
     2  1  0.50        -9.0305   4.0000                                                             
     3  2  1.50        -9.5241   0.0000                                                             
   Description                                                                                      
     l       E           TYP  RCUT    TYP  RCUT                                                     
     0    -23.9615318     23  1.200                                                                 
     0     -9.5240782     23  1.200                                                                 
     1     -9.0304911     23  1.520                                                                 
     1      8.1634956     23  1.520                                                                 
     2     -9.5240782      7  1.500                                                                 
  local pseudopotential read in
  partial core-charges read in
  partial kinetic energy density read in
  kinetic energy density of atom read in
  atomic valenz-charges read in
  non local Contribution for L=           0  read in
    real space projection operators read in
  non local Contribution for L=           0  read in
    real space projection operators read in
  non local Contribution for L=           1  read in
    real space projection operators read in
  non local Contribution for L=           1  read in
    real space projection operators read in
    PAW grid and wavefunctions read in
 
   number of l-projection  operators is LMAX  =           4
   number of lm-projection operators is LMMAX =           8
 
 POTCAR:    PAW_PBE C 08Apr2002                   
   SHA256 =  253f7b50bb8d59471dbedb8285d89021f4a42ed1a2c5d38a03a736e69125dd95 C/POTCAR              
   COPYR  = (c) Copyright 08Apr2002 Georg Kresse                                                    
   COPYR  = This file is part of the software VASP. Any use, copying, and all other rights are regul
   COPYR  = If you do not have a valid VASP license, you may not use, copy or distribute this file. 
   VRHFIN =C: s2p2                                                                                  
   LEXCH  = PE                                                                                      
   EATOM  =   147.1560 eV,   10.8157 Ry                                                             
                                                                                                    
   TITEL  = PAW_PBE C 08Apr2002                                                                     
   LULTRA =        F    use ultrasoft PP ?                                                          
   IUNSCR =        1    unscreen: 0-lin 1-nonlin 2-no                                               
   RPACOR =    1.200    partial core radius                                                         
   POMASS =   12.011; ZVAL   =    4.000    mass and valenz                                          
   RCORE  =    1.500    outmost cutoff radius                                                       
   RWIGS  =    1.630; RWIGS  =    0.863    wigner-seitz radius (au A)                               
   ENMAX  =  400.000; ENMIN  =  300.000 eV                                                          
   ICORE  =        2    local potential                                                             
   LCOR   =        T    correct aug charges                                                         
   LPAW   =        T    paw PP                                                                      
   EAUG   =  644.873                                                                                
   DEXC   =    0.000                                                                                
   RMAX   =    1.529    core radius for proj-oper                                                   
   RAUG   =    1.300    factor for augmentation sphere                                              
   RDEP   =    1.501    radius for radial grids                                                     
   RDEPT  =    1.300    core radius for aug-charge                                                  
                                                                                                    
   Atomic configuration                                                                             
    4 entries                                                                                       
     n  l   j            E        occ.                                                              
     1  0  0.50      -273.3789   2.0000                                                             
     2  0  0.50       -13.7508   2.0000                                                             
     2  1  0.50        -5.2854   2.0000                                                             
     3  2  1.50        -5.4423   0.0000                                                             
   Description                                                                                      
     l       E           TYP  RCUT    TYP  RCUT                                                     
     0    -13.7508458     23  1.200                                                                 
     0     -8.2022199     23  1.200                                                                 
     1     -5.2854383     23  1.500                                                                 
     1     34.0145650     23  1.500                                                                 
     2     -5.4423304      7  1.500                                                                 
  local pseudopotential read in
  partial core-charges read in
  partial kinetic energy density read in
  atomic valenz-charges read in
  non local Contribution for L=           0  read in
    real space projection operators read in
  non local Contribution for L=           0  read in
    real space projection operators read in
  non local Contribution for L=           1  read in
    real space projection operators read in
  non local Contribution for L=           1  read in
    real space projection operators read in
    PAW grid and wavefunctions read in
 
   number of l-projection  operators is LMAX  =           4
   number of lm-projection operators is LMMAX =           8
 
 POTCAR:    PAW_PBE H 15Jun2001                   
   SHA256 =  030f79b5d3ab3cf0e668861823c8fb652ff669f3e15e46930bd03bfd63a607b6 H/POTCAR              
   COPYR  = (c) Copyright 15Jun2001 Georg Kresse                                                    
   COPYR  = This file is part of the software VASP. Any use, copying, and all other rights are regul
   COPYR  = If you do not have a valid VASP license, you may not use, copy or distribute this file. 
   VRHFIN =H: ultrasoft test                                                                        
   LEXCH  = PE                                                                                      
   EATOM  =    12.4884 eV,    0.9179 Ry                                                             
                                                                                                    
   TITEL  = PAW_PBE H 15Jun2001                                                                     
   LULTRA =        F    use ultrasoft PP ?                                                          
   IUNSCR =        0    unscreen: 0-lin 1-nonlin 2-no                                               
   RPACOR =    0.000    partial core radius                                                         
   POMASS =    1.000; ZVAL   =    1.000    mass and valenz                                          
   RCORE  =    1.100    outmost cutoff radius                                                       
   RWIGS  =    0.700; RWIGS  =    0.370    wigner-seitz radius (au A)                               
   ENMAX  =  250.000; ENMIN  =  200.000 eV                                                          
   RCLOC  =    0.701    cutoff for local pot                                                        
   LCOR   =        T    correct aug charges                                                         
   LPAW   =        T    paw PP                                                                      
   EAUG   =  400.000                                                                                
   RMAX   =    1.123    core radius for proj-oper                                                   
   RAUG   =    1.200    factor for augmentation sphere                                              
   RDEP   =    1.112    radius for radial grids                                                     
   RDEPT  =    0.926    core radius for aug-charge                                                  
                                                                                                    
   Atomic configuration                                                                             
    2 entries                                                                                       
     n  l   j            E        occ.                                                              
     1  0  0.50        -6.4927   1.0000                                                             
     2  1  0.50        -3.4015   0.0000                                                             
   Description                                                                                      
     l       E           TYP  RCUT    TYP  RCUT                                                     
     0     -6.4927494     23  1.100                                                                 
     0      6.8029130     23  1.100                                                                 
     1     -4.0817478     23  1.100                                                                 
  local pseudopotential read in
  atomic valenz-charges read in
  non local Contribution for L=           0  read in
    real space projection operators read in
  non local Contribution for L=           0  read in
    real space projection operators read in
  non local Contribution for L=           1  read in
    real space projection operators read in
    PAW grid and wavefunctions read in
 
   number of l-projection  operators is LMAX  =           3
   number of lm-projection operators is LMMAX =           5
 
 POTCAR:    PAW_PBE N 08Apr2002                   
   SHA256 =  e053789ff3a61a86a1b75d8a110fcc91f86041011e7b0817c7c99e4e8a6349d7 N/POTCAR              
   COPYR  = (c) Copyright 08Apr2002 Georg Kresse                                                    
   COPYR  = This file is part of the software VASP. Any use, copying, and all other rights are regul
   COPYR  = If you do not have a valid VASP license, you may not use, copy or distribute this file. 
   VRHFIN =N: s2p3                                                                                  
   LEXCH  = PE                                                                                      
   EATOM  =   264.5486 eV,   19.4438 Ry                                                             
                                                                                                    
   TITEL  = PAW_PBE N 08Apr2002                                                                     
   LULTRA =        F    use ultrasoft PP ?                                                          
   IUNSCR =        1    unscreen: 0-lin 1-nonlin 2-no                                               
   RPACOR =    1.200    partial core radius                                                         
   POMASS =   14.001; ZVAL   =    5.000    mass and valenz                                          
   RCORE  =    1.500    outmost cutoff radius                                                       
   RWIGS  =    1.400; RWIGS  =    0.741    wigner-seitz radius (au A)                               
   ENMAX  =  400.000; ENMIN  =  300.000 eV                                                          
   ICORE  =        2    local potential                                                             
   LCOR   =        T    correct aug charges                                                         
   LPAW   =        T    paw PP                                                                      
   EAUG   =  627.112                                                                                
   DEXC   =    0.000                                                                                
   RMAX   =    1.529    core radius for proj-oper                                                   
   RAUG   =    1.300    factor for augmentation sphere                                              
   RDEP   =    1.514    radius for radial grids                                                     
   RDEPT  =    1.338    core radius for aug-charge                                                  
                                                                                                    
   Atomic configuration                                                                             
    4 entries                                                                                       
     n  l   j            E        occ.                                                              
     1  0  0.50      -384.7179   2.0000                                                             
     2  0  0.50       -18.5828   2.0000                                                             
     2  1  0.50        -7.0898   3.0000                                                             
     3  2  1.50        -6.8029   0.0000                                                             
   Description                                                                                      
     l       E           TYP  RCUT    TYP  RCUT                                                     
     0    -18.5828119     23  1.200                                                                 
     0    -13.5018863     23  1.200                                                                 
     1     -7.0897853     23  1.500                                                                 
     1      9.5240782     23  1.500                                                                 
     2     -6.8029130      7  1.500                                                                 
  local pseudopotential read in
  partial core-charges read in
  partial kinetic energy density read in
  atomic valenz-charges read in
  non local Contribution for L=           0  read in
    real space projection operators read in
  non local Contribution for L=           0  read in
    real space projection operators read in
  non local Contribution for L=           1  read in
    real space projection operators read in
  non local Contribution for L=           1  read in
    real space projection operators read in
    PAW grid and wavefunctions read in
 
   number of l-projection  operators is LMAX  =           4
   number of lm-projection operators is LMMAX =           8
 
 -----------------------------------------------------------------------------
|                                                                             |
|               ----> ADVICE to this user running VASP <----                  |
|                                                                             |
|     You have a (more or less) 'large supercell' and for larger cells it     |
|     might be more efficient to use real-space projection operators.         |
|     Therefore, try LREAL= Auto in the INCAR file.                           |
|     Mind: For very accurate calculation, you might also keep the            |
|     reciprocal projection scheme (i.e. LREAL=.FALSE.).                      |
|                                                                             |
 -----------------------------------------------------------------------------

  PAW_PBE Mn_pv 02Aug2007               :
 energy of atom  1       EATOM=-2025.2664
 kinetic energy error for atom=    0.0019 (will be added to EATOM!!)
  PAW_PBE O 08Apr2002                   :
 energy of atom  2       EATOM= -432.3788
 kinetic energy error for atom=    0.0085 (will be added to EATOM!!)
  PAW_PBE C 08Apr2002                   :
 energy of atom  3       EATOM= -147.1560
 kinetic energy error for atom=    0.0031 (will be added to EATOM!!)
  PAW_PBE H 15Jun2001                   :
 energy of atom  4       EATOM=  -12.4884
 kinetic energy error for atom=    0.0002 (will be added to EATOM!!)
  PAW_PBE N 08Apr2002                   :
 energy of atom  5       EATOM= -264.5486
 kinetic energy error for atom=    0.0057 (will be added to EATOM!!)
 
 
 POSCAR: crystal
  positions in direct lattice
  velocities in cartesian coordinates
 exchange correlation table for  LEXCH =        8
   RHO(1)=    0.500       N(1)  =     2000
   RHO(2)=  100.500       N(2)  =     4000
 


--------------------------------------------------------------------------------------------------------


 ion  position               nearest neighbor table
   1  0.000  0.500  0.000-   5 2.20   9 2.20  21 2.21  25 2.21  14 2.24  18 2.24
   2  0.500  0.500  0.500-   6 2.20  10 2.20  22 2.21  26 2.21  13 2.24  17 2.24
   3  0.000  0.000  0.000-   7 2.20  11 2.20  23 2.21  27 2.21  16 2.24  20 2.24
   4  0.500  0.000  0.500-   8 2.20  12 2.20  24 2.21  28 2.21  15 2.24  19 2.24
   5  0.094  0.579  0.216-  29 1.26   1 2.20
   6  0.406  0.421  0.716-  30 1.26   2 2.20
   7  0.906  0.079  0.784-  31 1.26   3 2.20
   8  0.594  0.921  0.284-  32 1.26   4 2.20
   9  0.906  0.421  0.784-  33 1.26   1 2.20
  10  0.594  0.579  0.284-  34 1.26   2 2.20
  11  0.094  0.921  0.216-  35 1.26   3 2.20
  12  0.406  0.079  0.716-  36 1.26   4 2.20
  13  0.259  0.563  0.424-  29 1.28   2 2.24
  14  0.241  0.437  0.924-  30 1.28   1 2.24
  15  0.741  0.063  0.576-  31 1.28   4 2.24
  16  0.759  0.937  0.076-  32 1.28   3 2.24
  17  0.741  0.437  0.576-  33 1.28   2 2.24
  18  0.759  0.563  0.076-  34 1.28   1 2.24
  19  0.259  0.937  0.424-  35 1.28   4 2.24
  20  0.241  0.063  0.924-  36 1.28   3 2.24
  21  0.973  0.344  0.137-  37 1.27   1 2.21
  22  0.527  0.656  0.637-  38 1.27   2 2.21
  23  0.027  0.844  0.863-  39 1.27   3 2.21
  24  0.473  0.156  0.363-  40 1.27   4 2.21
  25  0.027  0.656  0.863-  39 1.27   1 2.21
  26  0.473  0.344  0.363-  40 1.27   2 2.21
  27  0.973  0.156  0.137-  37 1.27   3 2.21
  28  0.527  0.844  0.637-  38 1.27   4 2.21
  29  0.211  0.535  0.286-  45 1.11   5 1.26  13 1.28
  30  0.289  0.465  0.786-  46 1.11   6 1.26  14 1.28
  31  0.789  0.035  0.714-  47 1.11   7 1.26  15 1.28
  32  0.711  0.965  0.214-  48 1.11   8 1.26  16 1.28
  33  0.789  0.465  0.714-  49 1.11   9 1.26  17 1.28
  34  0.711  0.535  0.214-  50 1.11  10 1.26  18 1.28
  35  0.211  0.965  0.286-  51 1.11  11 1.26  19 1.28
  36  0.289  0.035  0.786-  52 1.11  12 1.26  20 1.28
  37  0.987  0.250  0.067-  53 1.11  27 1.27  21 1.27
  38  0.513  0.750  0.567-  54 1.11  28 1.27  22 1.27
  39  0.013  0.750  0.933-  55 1.11  25 1.27  23 1.27
  40  0.487  0.250  0.433-  56 1.11  26 1.27  24 1.27
  41  0.914  0.750  0.471-  69 1.09  73 1.09  79 1.09  81 1.49
  42  0.586  0.250  0.971-  70 1.09  74 1.09  80 1.09  82 1.49
  43  0.086  0.250  0.529-  71 1.09  75 1.09  77 1.09  83 1.49
  44  0.414  0.750  0.029-  72 1.09  76 1.09  78 1.09  84 1.49
  45  0.279  0.467  0.226-  29 1.11
  46  0.221  0.533  0.726-  30 1.11
  47  0.721  0.967  0.774-  31 1.11
  48  0.779  0.033  0.274-  32 1.11
  49  0.721  0.533  0.774-  33 1.11
  50  0.779  0.467  0.274-  34 1.11
  51  0.279  0.033  0.226-  35 1.11
  52  0.221  0.967  0.726-  36 1.11
  53  0.011  0.250  0.939-  37 1.11
  54  0.489  0.750  0.439-  38 1.11
  55  0.989  0.750  0.061-  39 1.11
  56  0.511  0.250  0.561-  40 1.11
  57  0.082  0.750  0.652-  81 1.04
  58  0.418  0.250  0.152-  82 1.04
  59  0.918  0.250  0.348-  83 1.04
  60  0.582  0.750  0.848-  84 1.04
  61  0.144  0.679  0.490-  81 1.05
  62  0.356  0.321  0.990-  82 1.05
  63  0.856  0.179  0.510-  83 1.05
  64  0.644  0.821  0.010-  84 1.05
  65  0.856  0.321  0.510-  83 1.05
  66  0.644  0.679  0.010-  84 1.05
  67  0.144  0.821  0.490-  81 1.05
  68  0.356  0.179  0.990-  82 1.05
  69  0.915  0.750  0.342-  41 1.09
  70  0.585  0.250  0.842-  42 1.09
  71  0.085  0.250  0.658-  43 1.09
  72  0.415  0.750  0.158-  44 1.09
  73  0.853  0.675  0.515-  41 1.09
  74  0.647  0.325  0.015-  42 1.09
  75  0.147  0.175  0.485-  43 1.09
  76  0.353  0.825  0.985-  44 1.09
  77  0.147  0.325  0.485-  43 1.09
  78  0.353  0.675  0.985-  44 1.09
  79  0.853  0.825  0.515-  41 1.09
  80  0.647  0.175  0.015-  42 1.09
  81  0.082  0.750  0.529-  57 1.04  61 1.05  67 1.05  41 1.49
  82  0.418  0.250  0.029-  58 1.04  62 1.05  68 1.05  42 1.49
  83  0.918  0.250  0.471-  59 1.04  63 1.05  65 1.05  43 1.49
  84  0.582  0.750  0.971-  60 1.04  64 1.05  66 1.05  44 1.49
 
  LATTYP: Found a simple orthorhombic cell.
 ALAT       =     8.3283332753
 B/A-ratio  =     1.0168987778
 C/A-ratio  =     1.4335571810
  
  Lattice vectors:
  
 A1 = (  -8.3283332753,   0.0000000000,   0.0000000000)
 A2 = (   0.0000000000,   0.0000000000,   8.4690719290)
 A3 = (   0.0000000000,  11.9391419728,   0.0000000000)


Analysis of symmetry for initial positions (statically):
=====================================================================
 Subroutine PRICEL returns:
 Original cell was already a primitive cell.
 

 Routine SETGRP: Setting up the symmetry group for a 
 simple orthorhombic supercell.


 Subroutine GETGRP returns: Found  8 space group operations
 (whereof  2 operations were pure point group operations)
 out of a pool of  8 trial point group operations.


The static configuration has the point symmetry S_2 .
 The point group associated with its full space group is D_2h.


Analysis of symmetry for dynamics (positions and initial velocities):
=====================================================================
 Subroutine PRICEL returns:
 Original cell was already a primitive cell.
 

 Routine SETGRP: Setting up the symmetry group for a 
 simple orthorhombic supercell.


 Subroutine GETGRP returns: Found  8 space group operations
 (whereof  2 operations were pure point group operations)
 out of a pool of  8 trial point group operations.


The dynamic configuration has the point symmetry S_2 .
 The point group associated with its full space group is D_2h.


Analysis of structural, dynamic, and magnetic symmetry:
=====================================================================
 Subroutine PRICEL returns:
 Original cell was already a primitive cell.
 

 Routine SETGRP: Setting up the symmetry group for a 
 simple orthorhombic supercell.


 Subroutine GETGRP returns: Found  8 space group operations
 (whereof  2 operations were pure point group operations)
 out of a pool of  8 trial point group operations.


The overall configuration has the point symmetry S_2 .
 The point group associated with its full space group is D_2h.


 Subroutine INISYM returns: Found  8 space group operations
 (whereof  2 operations are pure point group operations),
 and found     1 'primitive' translations


----------------------------------------------------------------------------------------

                                     Primitive cell                                     

  volume of cell :     842.1065

  direct lattice vectors                    reciprocal lattice vectors
     8.328333275  0.000000000  0.000000000     0.120072044  0.000000000  0.000000000
     0.000000000 11.939141973  0.000000000     0.000000000  0.083758113  0.000000000
     0.000000000  0.000000000  8.469071929     0.000000000  0.000000000  0.118076692

  length of vectors
     8.328333275 11.939141973  8.469071929     0.120072044  0.083758113  0.118076692

  position of ions in fractional coordinates (direct lattice)
     0.000000000  0.500000000  0.000000000
     0.500000000  0.500000000  0.500000000
     0.000000000  0.000000000  0.000000000
     0.500000000  0.000000000  0.500000000
     0.093655130  0.578990858  0.215806985
     0.406344870  0.421009142  0.715806985
     0.906344870  0.078990858  0.784193015
     0.593655130  0.921009142  0.284193015
     0.906344870  0.421009142  0.784193015
     0.593655130  0.578990858  0.284193015
     0.093655130  0.921009142  0.215806985
     0.406344870  0.078990858  0.715806985
     0.258675756  0.562801754  0.424348202
     0.241324244  0.437198246  0.924348202
     0.741324244  0.062801754  0.575651798
     0.758675756  0.937198246  0.075651798
     0.741324244  0.437198246  0.575651798
     0.758675756  0.562801754  0.075651798
     0.258675756  0.937198246  0.424348202
     0.241324244  0.062801754  0.924348202
     0.972524903  0.343661051  0.136886083
     0.527475097  0.656338949  0.636886083
     0.027475097  0.843661051  0.863113917
     0.472524903  0.156338949  0.363113917
     0.027475097  0.656338949  0.863113917
     0.472524903  0.343661051  0.363113917
     0.972524903  0.156338949  0.136886083
     0.527475097  0.843661051  0.636886083
     0.211113241  0.534838086  0.286304136
     0.288886759  0.465161914  0.786304136
     0.788886759  0.034838086  0.713695864
     0.711113241  0.965161914  0.213695864
     0.788886759  0.465161914  0.713695864
     0.711113241  0.534838086  0.213695864
     0.211113241  0.965161914  0.286304136
     0.288886759  0.034838086  0.786304136
     0.986693198  0.250000000  0.067248920
     0.513306802  0.750000000  0.567248920
     0.013306802  0.750000000  0.932751080
     0.486693198  0.250000000  0.432751080
     0.913811132  0.750000000  0.471286923
     0.586188868  0.250000000  0.971286923
     0.086188868  0.250000000  0.528713077
     0.413811132  0.750000000  0.028713077
     0.278950401  0.467380062  0.226248972
     0.221049599  0.532619938  0.726248972
     0.721049599  0.967380062  0.773751028
     0.778950401  0.032619938  0.273751028
     0.721049599  0.532619938  0.773751028
     0.778950401  0.467380062  0.273751028
     0.278950401  0.032619938  0.226248972
     0.221049599  0.967380062  0.726248972
     0.011490390  0.250000000  0.938667215
     0.488509610  0.750000000  0.438667215
     0.988509610  0.750000000  0.061332785
     0.511490390  0.250000000  0.561332785
     0.082168478  0.750000000  0.651573852
     0.417831522  0.250000000  0.151573852
     0.917831522  0.250000000  0.348426148
     0.582168478  0.750000000  0.848426148
     0.144455164  0.678612317  0.489550838
     0.355544836  0.321387683  0.989550838
     0.855544836  0.178612317  0.510449162
     0.644455164  0.821387683  0.010449162
     0.855544836  0.321387683  0.510449162
     0.644455164  0.678612317  0.010449162
     0.144455164  0.821387683  0.489550838
     0.355544836  0.178612317  0.989550838
     0.914961492  0.750000000  0.342370306
     0.585038508  0.250000000  0.842370306
     0.085038508  0.250000000  0.657629694
     0.414961492  0.750000000  0.157629694
     0.852580043  0.675002885  0.514685854
     0.647419957  0.324997115  0.014685854
     0.147419957  0.175002885  0.485314146
     0.352580043  0.824997115  0.985314146
     0.147419957  0.324997115  0.485314146
     0.352580043  0.675002885  0.985314146
     0.852580043  0.824997115  0.514685854
     0.647419957  0.175002885  0.014685854
     0.082099881  0.750000000  0.529327248
     0.417900119  0.250000000  0.029327248
     0.917900119  0.250000000  0.470672752
     0.582099881  0.750000000  0.970672752

  ion indices of the primitive-cell ions
   primitive index   ion index
                 1           1
                 2           2
                 3           3
                 4           4
                 5           5
                 6           6
                 7           7
                 8           8
                 9           9
                10          10
                11          11
                12          12
                13          13
                14          14
                15          15
                16          16
                17          17
                18          18
                19          19
                20          20
                21          21
                22          22
                23          23
                24          24
                25          25
                26          26
                27          27
                28          28
                29          29
                30          30
                31          31
                32          32
                33          33
                34          34
                35          35
                36          36
                37          37
                38          38
                39          39
                40          40
                41          41
                42          42
                43          43
                44          44
                45          45
                46          46
                47          47
                48          48
                49          49
                50          50
                51          51
                52          52
                53          53
                54          54
                55          55
                56          56
                57          57
                58          58
                59          59
                60          60
                61          61
                62          62
                63          63
                64          64
                65          65
                66          66
                67          67
                68          68
                69          69
                70          70
                71          71
                72          72
                73          73
                74          74
                75          75
                76          76
                77          77
                78          78
                79          79
                80          80
                81          81
                82          82
                83          83
                84          84

----------------------------------------------------------------------------------------

 
 
 KPOINTS: K-Spacing Value to Generate K-Mesh: 0.03

Automatic generation of k-mesh.
 Grid dimensions read from file:
 generate k-points for:    8    6    8

 Generating k-lattice:

  Cartesian coordinates                     Fractional coordinates (reciprocal lattice)
     0.015009006  0.000000000  0.000000000     0.125000000  0.000000000  0.000000000
     0.000000000  0.013959685  0.000000000     0.000000000  0.166666667  0.000000000
     0.000000000  0.000000000  0.014759587     0.000000000  0.000000000  0.125000000

  Length of vectors
     0.015009006  0.013959685  0.014759587

  Shift w.r.t. Gamma in fractional coordinates (k-lattice)
     0.000000000  0.000000000  0.000000000

 
 Subroutine IBZKPT returns following result:
 ===========================================
 
 Found    100 irreducible k-points:
 
 Following reciprocal coordinates:
            Coordinates               Weight
  0.000000  0.000000  0.000000      1.000000
  0.125000  0.000000  0.000000      2.000000
  0.250000  0.000000  0.000000      2.000000
  0.375000  0.000000  0.000000      2.000000
  0.500000  0.000000  0.000000      1.000000
  0.000000  0.166667  0.000000      2.000000
  0.125000  0.166667  0.000000      4.000000
  0.250000  0.166667  0.000000      4.000000
  0.375000  0.166667  0.000000      4.000000
  0.500000  0.166667  0.000000      2.000000
  0.000000  0.333333  0.000000      2.000000
  0.125000  0.333333  0.000000      4.000000
  0.250000  0.333333  0.000000      4.000000
  0.375000  0.333333  0.000000      4.000000
  0.500000  0.333333  0.000000      2.000000
  0.000000  0.500000  0.000000      1.000000
  0.125000  0.500000  0.000000      2.000000
  0.250000  0.500000  0.000000      2.000000
  0.375000  0.500000  0.000000      2.000000
  0.500000  0.500000  0.000000      1.000000
  0.000000  0.000000  0.125000      2.000000
  0.125000  0.000000  0.125000      4.000000
  0.250000  0.000000  0.125000      4.000000
  0.375000  0.000000  0.125000      4.000000
  0.500000  0.000000  0.125000      2.000000
  0.000000  0.166667  0.125000      4.000000
  0.125000  0.166667  0.125000      8.000000
  0.250000  0.166667  0.125000      8.000000
  0.375000  0.166667  0.125000      8.000000
  0.500000  0.166667  0.125000      4.000000
  0.000000  0.333333  0.125000      4.000000
  0.125000  0.333333  0.125000      8.000000
  0.250000  0.333333  0.125000      8.000000
  0.375000  0.333333  0.125000      8.000000
  0.500000  0.333333  0.125000      4.000000
  0.000000  0.500000  0.125000      2.000000
  0.125000  0.500000  0.125000      4.000000
  0.250000  0.500000  0.125000      4.000000
  0.375000  0.500000  0.125000      4.000000
  0.500000  0.500000  0.125000      2.000000
  0.000000  0.000000  0.250000      2.000000
  0.125000  0.000000  0.250000      4.000000
  0.250000  0.000000  0.250000      4.000000
  0.375000  0.000000  0.250000      4.000000
  0.500000  0.000000  0.250000      2.000000
  0.000000  0.166667  0.250000      4.000000
  0.125000  0.166667  0.250000      8.000000
  0.250000  0.166667  0.250000      8.000000
  0.375000  0.166667  0.250000      8.000000
  0.500000  0.166667  0.250000      4.000000
  0.000000  0.333333  0.250000      4.000000
  0.125000  0.333333  0.250000      8.000000
  0.250000  0.333333  0.250000      8.000000
  0.375000  0.333333  0.250000      8.000000
  0.500000  0.333333  0.250000      4.000000
  0.000000  0.500000  0.250000      2.000000
  0.125000  0.500000  0.250000      4.000000
  0.250000  0.500000  0.250000      4.000000
  0.375000  0.500000  0.250000      4.000000
  0.500000  0.500000  0.250000      2.000000
  0.000000  0.000000  0.375000      2.000000
  0.125000  0.000000  0.375000      4.000000
  0.250000  0.000000  0.375000      4.000000
  0.375000  0.000000  0.375000      4.000000
  0.500000  0.000000  0.375000      2.000000
  0.000000  0.166667  0.375000      4.000000
  0.125000  0.166667  0.375000      8.000000
  0.250000  0.166667  0.375000      8.000000
  0.375000  0.166667  0.375000      8.000000
  0.500000  0.166667  0.375000      4.000000
  0.000000  0.333333  0.375000      4.000000
  0.125000  0.333333  0.375000      8.000000
  0.250000  0.333333  0.375000      8.000000
  0.375000  0.333333  0.375000      8.000000
  0.500000  0.333333  0.375000      4.000000
  0.000000  0.500000  0.375000      2.000000
  0.125000  0.500000  0.375000      4.000000
  0.250000  0.500000  0.375000      4.000000
  0.375000  0.500000  0.375000      4.000000
  0.500000  0.500000  0.375000      2.000000
  0.000000  0.000000  0.500000      1.000000
  0.125000  0.000000  0.500000      2.000000
  0.250000  0.000000  0.500000      2.000000
  0.375000  0.000000  0.500000      2.000000
  0.500000  0.000000  0.500000      1.000000
  0.000000  0.166667  0.500000      2.000000
  0.125000  0.166667  0.500000      4.000000
  0.250000  0.166667  0.500000      4.000000
  0.375000  0.166667  0.500000      4.000000
  0.500000  0.166667  0.500000      2.000000
  0.000000  0.333333  0.500000      2.000000
  0.125000  0.333333  0.500000      4.000000
  0.250000  0.333333  0.500000      4.000000
  0.375000  0.333333  0.500000      4.000000
  0.500000  0.333333  0.500000      2.000000
  0.000000  0.500000  0.500000      1.000000
  0.125000  0.500000  0.500000      2.000000
  0.250000  0.500000  0.500000      2.000000
  0.375000  0.500000  0.500000      2.000000
  0.500000  0.500000  0.500000      1.000000
 
 Following cartesian coordinates:
            Coordinates               Weight
  0.000000  0.000000  0.000000      1.000000
  0.015009  0.000000  0.000000      2.000000
  0.030018  0.000000  0.000000      2.000000
  0.045027  0.000000  0.000000      2.000000
  0.060036  0.000000  0.000000      1.000000
  0.000000  0.013960  0.000000      2.000000
  0.015009  0.013960  0.000000      4.000000
  0.030018  0.013960  0.000000      4.000000
  0.045027  0.013960  0.000000      4.000000
  0.060036  0.013960  0.000000      2.000000
  0.000000  0.027919  0.000000      2.000000
  0.015009  0.027919  0.000000      4.000000
  0.030018  0.027919  0.000000      4.000000
  0.045027  0.027919  0.000000      4.000000
  0.060036  0.027919  0.000000      2.000000
  0.000000  0.041879  0.000000      1.000000
  0.015009  0.041879  0.000000      2.000000
  0.030018  0.041879  0.000000      2.000000
  0.045027  0.041879  0.000000      2.000000
  0.060036  0.041879  0.000000      1.000000
  0.000000  0.000000  0.014760      2.000000
  0.015009  0.000000  0.014760      4.000000
  0.030018  0.000000  0.014760      4.000000
  0.045027  0.000000  0.014760      4.000000
  0.060036  0.000000  0.014760      2.000000
  0.000000  0.013960  0.014760      4.000000
  0.015009  0.013960  0.014760      8.000000
  0.030018  0.013960  0.014760      8.000000
  0.045027  0.013960  0.014760      8.000000
  0.060036  0.013960  0.014760      4.000000
  0.000000  0.027919  0.014760      4.000000
  0.015009  0.027919  0.014760      8.000000
  0.030018  0.027919  0.014760      8.000000
  0.045027  0.027919  0.014760      8.000000
  0.060036  0.027919  0.014760      4.000000
  0.000000  0.041879  0.014760      2.000000
  0.015009  0.041879  0.014760      4.000000
  0.030018  0.041879  0.014760      4.000000
  0.045027  0.041879  0.014760      4.000000
  0.060036  0.041879  0.014760      2.000000
  0.000000  0.000000  0.029519      2.000000
  0.015009  0.000000  0.029519      4.000000
  0.030018  0.000000  0.029519      4.000000
  0.045027  0.000000  0.029519      4.000000
  0.060036  0.000000  0.029519      2.000000
  0.000000  0.013960  0.029519      4.000000
  0.015009  0.013960  0.029519      8.000000
  0.030018  0.013960  0.029519      8.000000
  0.045027  0.013960  0.029519      8.000000
  0.060036  0.013960  0.029519      4.000000
  0.000000  0.027919  0.029519      4.000000
  0.015009  0.027919  0.029519      8.000000
  0.030018  0.027919  0.029519      8.000000
  0.045027  0.027919  0.029519      8.000000
  0.060036  0.027919  0.029519      4.000000
  0.000000  0.041879  0.029519      2.000000
  0.015009  0.041879  0.029519      4.000000
  0.030018  0.041879  0.029519      4.000000
  0.045027  0.041879  0.029519      4.000000
  0.060036  0.041879  0.029519      2.000000
  0.000000  0.000000  0.044279      2.000000
  0.015009  0.000000  0.044279      4.000000
  0.030018  0.000000  0.044279      4.000000
  0.045027  0.000000  0.044279      4.000000
  0.060036  0.000000  0.044279      2.000000
  0.000000  0.013960  0.044279      4.000000
  0.015009  0.013960  0.044279      8.000000
  0.030018  0.013960  0.044279      8.000000
  0.045027  0.013960  0.044279      8.000000
  0.060036  0.013960  0.044279      4.000000
  0.000000  0.027919  0.044279      4.000000
  0.015009  0.027919  0.044279      8.000000
  0.030018  0.027919  0.044279      8.000000
  0.045027  0.027919  0.044279      8.000000
  0.060036  0.027919  0.044279      4.000000
  0.000000  0.041879  0.044279      2.000000
  0.015009  0.041879  0.044279      4.000000
  0.030018  0.041879  0.044279      4.000000
  0.045027  0.041879  0.044279      4.000000
  0.060036  0.041879  0.044279      2.000000
  0.000000  0.000000  0.059038      1.000000
  0.015009  0.000000  0.059038      2.000000
  0.030018  0.000000  0.059038      2.000000
  0.045027  0.000000  0.059038      2.000000
  0.060036  0.000000  0.059038      1.000000
  0.000000  0.013960  0.059038      2.000000
  0.015009  0.013960  0.059038      4.000000
  0.030018  0.013960  0.059038      4.000000
  0.045027  0.013960  0.059038      4.000000
  0.060036  0.013960  0.059038      2.000000
  0.000000  0.027919  0.059038      2.000000
  0.015009  0.027919  0.059038      4.000000
  0.030018  0.027919  0.059038      4.000000
  0.045027  0.027919  0.059038      4.000000
  0.060036  0.027919  0.059038      2.000000
  0.000000  0.041879  0.059038      1.000000
  0.015009  0.041879  0.059038      2.000000
  0.030018  0.041879  0.059038      2.000000
  0.045027  0.041879  0.059038      2.000000
  0.060036  0.041879  0.059038      1.000000
 
 
 Subroutine IBZKPT_HF returns following result:
 ==============================================
 
 Found    384 k-points in 1st BZ
 the following    384 k-points will be used (e.g. in the exchange kernel)
 Following reciprocal coordinates:   # in IRBZ
  0.000000  0.000000  0.000000    0.00260417   1 t-inv F
  0.125000  0.000000  0.000000    0.00260417   2 t-inv F
  0.250000  0.000000  0.000000    0.00260417   3 t-inv F
  0.375000  0.000000  0.000000    0.00260417   4 t-inv F
  0.500000  0.000000  0.000000    0.00260417   5 t-inv F
  0.000000  0.166667  0.000000    0.00260417   6 t-inv F
  0.125000  0.166667  0.000000    0.00260417   7 t-inv F
  0.250000  0.166667  0.000000    0.00260417   8 t-inv F
  0.375000  0.166667  0.000000    0.00260417   9 t-inv F
  0.500000  0.166667  0.000000    0.00260417  10 t-inv F
  0.000000  0.333333  0.000000    0.00260417  11 t-inv F
  0.125000  0.333333  0.000000    0.00260417  12 t-inv F
  0.250000  0.333333  0.000000    0.00260417  13 t-inv F
  0.375000  0.333333  0.000000    0.00260417  14 t-inv F
  0.500000  0.333333  0.000000    0.00260417  15 t-inv F
  0.000000  0.500000  0.000000    0.00260417  16 t-inv F
  0.125000  0.500000  0.000000    0.00260417  17 t-inv F
  0.250000  0.500000  0.000000    0.00260417  18 t-inv F
  0.375000  0.500000  0.000000    0.00260417  19 t-inv F
  0.500000  0.500000  0.000000    0.00260417  20 t-inv F
  0.000000  0.000000  0.125000    0.00260417  21 t-inv F
  0.125000  0.000000  0.125000    0.00260417  22 t-inv F
  0.250000  0.000000  0.125000    0.00260417  23 t-inv F
  0.375000  0.000000  0.125000    0.00260417  24 t-inv F
  0.500000  0.000000  0.125000    0.00260417  25 t-inv F
  0.000000  0.166667  0.125000    0.00260417  26 t-inv F
  0.125000  0.166667  0.125000    0.00260417  27 t-inv F
  0.250000  0.166667  0.125000    0.00260417  28 t-inv F
  0.375000  0.166667  0.125000    0.00260417  29 t-inv F
  0.500000  0.166667  0.125000    0.00260417  30 t-inv F
  0.000000  0.333333  0.125000    0.00260417  31 t-inv F
  0.125000  0.333333  0.125000    0.00260417  32 t-inv F
  0.250000  0.333333  0.125000    0.00260417  33 t-inv F
  0.375000  0.333333  0.125000    0.00260417  34 t-inv F
  0.500000  0.333333  0.125000    0.00260417  35 t-inv F
  0.000000  0.500000  0.125000    0.00260417  36 t-inv F
  0.125000  0.500000  0.125000    0.00260417  37 t-inv F
  0.250000  0.500000  0.125000    0.00260417  38 t-inv F
  0.375000  0.500000  0.125000    0.00260417  39 t-inv F
  0.500000  0.500000  0.125000    0.00260417  40 t-inv F
  0.000000  0.000000  0.250000    0.00260417  41 t-inv F
  0.125000  0.000000  0.250000    0.00260417  42 t-inv F
  0.250000  0.000000  0.250000    0.00260417  43 t-inv F
  0.375000  0.000000  0.250000    0.00260417  44 t-inv F
  0.500000  0.000000  0.250000    0.00260417  45 t-inv F
  0.000000  0.166667  0.250000    0.00260417  46 t-inv F
  0.125000  0.166667  0.250000    0.00260417  47 t-inv F
  0.250000  0.166667  0.250000    0.00260417  48 t-inv F
  0.375000  0.166667  0.250000    0.00260417  49 t-inv F
  0.500000  0.166667  0.250000    0.00260417  50 t-inv F
  0.000000  0.333333  0.250000    0.00260417  51 t-inv F
  0.125000  0.333333  0.250000    0.00260417  52 t-inv F
  0.250000  0.333333  0.250000    0.00260417  53 t-inv F
  0.375000  0.333333  0.250000    0.00260417  54 t-inv F
  0.500000  0.333333  0.250000    0.00260417  55 t-inv F
  0.000000  0.500000  0.250000    0.00260417  56 t-inv F
  0.125000  0.500000  0.250000    0.00260417  57 t-inv F
  0.250000  0.500000  0.250000    0.00260417  58 t-inv F
  0.375000  0.500000  0.250000    0.00260417  59 t-inv F
  0.500000  0.500000  0.250000    0.00260417  60 t-inv F
  0.000000  0.000000  0.375000    0.00260417  61 t-inv F
  0.125000  0.000000  0.375000    0.00260417  62 t-inv F
  0.250000  0.000000  0.375000    0.00260417  63 t-inv F
  0.375000  0.000000  0.375000    0.00260417  64 t-inv F
  0.500000  0.000000  0.375000    0.00260417  65 t-inv F
  0.000000  0.166667  0.375000    0.00260417  66 t-inv F
  0.125000  0.166667  0.375000    0.00260417  67 t-inv F
  0.250000  0.166667  0.375000    0.00260417  68 t-inv F
  0.375000  0.166667  0.375000    0.00260417  69 t-inv F
  0.500000  0.166667  0.375000    0.00260417  70 t-inv F
  0.000000  0.333333  0.375000    0.00260417  71 t-inv F
  0.125000  0.333333  0.375000    0.00260417  72 t-inv F
  0.250000  0.333333  0.375000    0.00260417  73 t-inv F
  0.375000  0.333333  0.375000    0.00260417  74 t-inv F
  0.500000  0.333333  0.375000    0.00260417  75 t-inv F
  0.000000  0.500000  0.375000    0.00260417  76 t-inv F
  0.125000  0.500000  0.375000    0.00260417  77 t-inv F
  0.250000  0.500000  0.375000    0.00260417  78 t-inv F
  0.375000  0.500000  0.375000    0.00260417  79 t-inv F
  0.500000  0.500000  0.375000    0.00260417  80 t-inv F
  0.000000  0.000000  0.500000    0.00260417  81 t-inv F
  0.125000  0.000000  0.500000    0.00260417  82 t-inv F
  0.250000  0.000000  0.500000    0.00260417  83 t-inv F
  0.375000  0.000000  0.500000    0.00260417  84 t-inv F
  0.500000  0.000000  0.500000    0.00260417  85 t-inv F
  0.000000  0.166667  0.500000    0.00260417  86 t-inv F
  0.125000  0.166667  0.500000    0.00260417  87 t-inv F
  0.250000  0.166667  0.500000    0.00260417  88 t-inv F
  0.375000  0.166667  0.500000    0.00260417  89 t-inv F
  0.500000  0.166667  0.500000    0.00260417  90 t-inv F
  0.000000  0.333333  0.500000    0.00260417  91 t-inv F
  0.125000  0.333333  0.500000    0.00260417  92 t-inv F
  0.250000  0.333333  0.500000    0.00260417  93 t-inv F
  0.375000  0.333333  0.500000    0.00260417  94 t-inv F
  0.500000  0.333333  0.500000    0.00260417  95 t-inv F
  0.000000  0.500000  0.500000    0.00260417  96 t-inv F
  0.125000  0.500000  0.500000    0.00260417  97 t-inv F
  0.250000  0.500000  0.500000    0.00260417  98 t-inv F
  0.375000  0.500000  0.500000    0.00260417  99 t-inv F
  0.500000  0.500000  0.500000    0.00260417 100 t-inv F
 -0.125000 -0.000000 -0.000000    0.00260417   2 t-inv F
 -0.250000 -0.000000 -0.000000    0.00260417   3 t-inv F
 -0.375000 -0.000000 -0.000000    0.00260417   4 t-inv F
 -0.000000 -0.166667 -0.000000    0.00260417   6 t-inv F
 -0.125000 -0.166667 -0.000000    0.00260417   7 t-inv F
 -0.125000  0.166667 -0.000000    0.00260417   7 t-inv F spinflp
  0.125000 -0.166667  0.000000    0.00260417   7 t-inv F spinflp
 -0.250000 -0.166667 -0.000000    0.00260417   8 t-inv F
 -0.250000  0.166667 -0.000000    0.00260417   8 t-inv F spinflp
  0.250000 -0.166667  0.000000    0.00260417   8 t-inv F spinflp
 -0.375000 -0.166667 -0.000000    0.00260417   9 t-inv F
 -0.375000  0.166667 -0.000000    0.00260417   9 t-inv F spinflp
  0.375000 -0.166667  0.000000    0.00260417   9 t-inv F spinflp
 -0.500000 -0.166667 -0.000000    0.00260417  10 t-inv F
 -0.000000 -0.333333 -0.000000    0.00260417  11 t-inv F
 -0.125000 -0.333333 -0.000000    0.00260417  12 t-inv F
 -0.125000  0.333333 -0.000000    0.00260417  12 t-inv F spinflp
  0.125000 -0.333333  0.000000    0.00260417  12 t-inv F spinflp
 -0.250000 -0.333333 -0.000000    0.00260417  13 t-inv F
 -0.250000  0.333333 -0.000000    0.00260417  13 t-inv F spinflp
  0.250000 -0.333333  0.000000    0.00260417  13 t-inv F spinflp
 -0.375000 -0.333333 -0.000000    0.00260417  14 t-inv F
 -0.375000  0.333333 -0.000000    0.00260417  14 t-inv F spinflp
  0.375000 -0.333333  0.000000    0.00260417  14 t-inv F spinflp
 -0.500000 -0.333333 -0.000000    0.00260417  15 t-inv F
 -0.125000 -0.500000 -0.000000    0.00260417  17 t-inv F
 -0.250000 -0.500000 -0.000000    0.00260417  18 t-inv F
 -0.375000 -0.500000 -0.000000    0.00260417  19 t-inv F
 -0.000000 -0.000000 -0.125000    0.00260417  21 t-inv F
 -0.125000 -0.000000 -0.125000    0.00260417  22 t-inv F
 -0.125000 -0.000000  0.125000    0.00260417  22 t-inv F spinflp
  0.125000  0.000000 -0.125000    0.00260417  22 t-inv F spinflp
 -0.250000 -0.000000 -0.125000    0.00260417  23 t-inv F
 -0.250000 -0.000000  0.125000    0.00260417  23 t-inv F spinflp
  0.250000  0.000000 -0.125000    0.00260417  23 t-inv F spinflp
 -0.375000 -0.000000 -0.125000    0.00260417  24 t-inv F
 -0.375000 -0.000000  0.125000    0.00260417  24 t-inv F spinflp
  0.375000  0.000000 -0.125000    0.00260417  24 t-inv F spinflp
 -0.500000 -0.000000 -0.125000    0.00260417  25 t-inv F
 -0.000000 -0.166667 -0.125000    0.00260417  26 t-inv F
 -0.000000  0.166667 -0.125000    0.00260417  26 t-inv F spinflp
  0.000000 -0.166667  0.125000    0.00260417  26 t-inv F spinflp
 -0.125000 -0.166667 -0.125000    0.00260417  27 t-inv F
 -0.125000  0.166667 -0.125000    0.00260417  27 t-inv F spinflp
  0.125000 -0.166667  0.125000    0.00260417  27 t-inv F spinflp
 -0.125000 -0.166667  0.125000    0.00260417  27 t-inv F spinflp
  0.125000  0.166667 -0.125000    0.00260417  27 t-inv F spinflp
  0.125000 -0.166667 -0.125000    0.00260417  27 t-inv F
 -0.125000  0.166667  0.125000    0.00260417  27 t-inv F
 -0.250000 -0.166667 -0.125000    0.00260417  28 t-inv F
 -0.250000  0.166667 -0.125000    0.00260417  28 t-inv F spinflp
  0.250000 -0.166667  0.125000    0.00260417  28 t-inv F spinflp
 -0.250000 -0.166667  0.125000    0.00260417  28 t-inv F spinflp
  0.250000  0.166667 -0.125000    0.00260417  28 t-inv F spinflp
  0.250000 -0.166667 -0.125000    0.00260417  28 t-inv F
 -0.250000  0.166667  0.125000    0.00260417  28 t-inv F
 -0.375000 -0.166667 -0.125000    0.00260417  29 t-inv F
 -0.375000  0.166667 -0.125000    0.00260417  29 t-inv F spinflp
  0.375000 -0.166667  0.125000    0.00260417  29 t-inv F spinflp
 -0.375000 -0.166667  0.125000    0.00260417  29 t-inv F spinflp
  0.375000  0.166667 -0.125000    0.00260417  29 t-inv F spinflp
  0.375000 -0.166667 -0.125000    0.00260417  29 t-inv F
 -0.375000  0.166667  0.125000    0.00260417  29 t-inv F
 -0.500000 -0.166667 -0.125000    0.00260417  30 t-inv F
 -0.500000  0.166667 -0.125000    0.00260417  30 t-inv F spinflp
  0.500000 -0.166667  0.125000    0.00260417  30 t-inv F spinflp
 -0.000000 -0.333333 -0.125000    0.00260417  31 t-inv F
 -0.000000  0.333333 -0.125000    0.00260417  31 t-inv F spinflp
  0.000000 -0.333333  0.125000    0.00260417  31 t-inv F spinflp
 -0.125000 -0.333333 -0.125000    0.00260417  32 t-inv F
 -0.125000  0.333333 -0.125000    0.00260417  32 t-inv F spinflp
  0.125000 -0.333333  0.125000    0.00260417  32 t-inv F spinflp
 -0.125000 -0.333333  0.125000    0.00260417  32 t-inv F spinflp
  0.125000  0.333333 -0.125000    0.00260417  32 t-inv F spinflp
  0.125000 -0.333333 -0.125000    0.00260417  32 t-inv F
 -0.125000  0.333333  0.125000    0.00260417  32 t-inv F
 -0.250000 -0.333333 -0.125000    0.00260417  33 t-inv F
 -0.250000  0.333333 -0.125000    0.00260417  33 t-inv F spinflp
  0.250000 -0.333333  0.125000    0.00260417  33 t-inv F spinflp
 -0.250000 -0.333333  0.125000    0.00260417  33 t-inv F spinflp
  0.250000  0.333333 -0.125000    0.00260417  33 t-inv F spinflp
  0.250000 -0.333333 -0.125000    0.00260417  33 t-inv F
 -0.250000  0.333333  0.125000    0.00260417  33 t-inv F
 -0.375000 -0.333333 -0.125000    0.00260417  34 t-inv F
 -0.375000  0.333333 -0.125000    0.00260417  34 t-inv F spinflp
  0.375000 -0.333333  0.125000    0.00260417  34 t-inv F spinflp
 -0.375000 -0.333333  0.125000    0.00260417  34 t-inv F spinflp
  0.375000  0.333333 -0.125000    0.00260417  34 t-inv F spinflp
  0.375000 -0.333333 -0.125000    0.00260417  34 t-inv F
 -0.375000  0.333333  0.125000    0.00260417  34 t-inv F
 -0.500000 -0.333333 -0.125000    0.00260417  35 t-inv F
 -0.500000  0.333333 -0.125000    0.00260417  35 t-inv F spinflp
  0.500000 -0.333333  0.125000    0.00260417  35 t-inv F spinflp
 -0.000000 -0.500000 -0.125000    0.00260417  36 t-inv F
 -0.125000 -0.500000 -0.125000    0.00260417  37 t-inv F
 -0.125000 -0.500000  0.125000    0.00260417  37 t-inv F spinflp
  0.125000  0.500000 -0.125000    0.00260417  37 t-inv F spinflp
 -0.250000 -0.500000 -0.125000    0.00260417  38 t-inv F
 -0.250000 -0.500000  0.125000    0.00260417  38 t-inv F spinflp
  0.250000  0.500000 -0.125000    0.00260417  38 t-inv F spinflp
 -0.375000 -0.500000 -0.125000    0.00260417  39 t-inv F
 -0.375000 -0.500000  0.125000    0.00260417  39 t-inv F spinflp
  0.375000  0.500000 -0.125000    0.00260417  39 t-inv F spinflp
 -0.500000 -0.500000 -0.125000    0.00260417  40 t-inv F
 -0.000000 -0.000000 -0.250000    0.00260417  41 t-inv F
 -0.125000 -0.000000 -0.250000    0.00260417  42 t-inv F
 -0.125000 -0.000000  0.250000    0.00260417  42 t-inv F spinflp
  0.125000  0.000000 -0.250000    0.00260417  42 t-inv F spinflp
 -0.250000 -0.000000 -0.250000    0.00260417  43 t-inv F
 -0.250000 -0.000000  0.250000    0.00260417  43 t-inv F spinflp
  0.250000  0.000000 -0.250000    0.00260417  43 t-inv F spinflp
 -0.375000 -0.000000 -0.250000    0.00260417  44 t-inv F
 -0.375000 -0.000000  0.250000    0.00260417  44 t-inv F spinflp
  0.375000  0.000000 -0.250000    0.00260417  44 t-inv F spinflp
 -0.500000 -0.000000 -0.250000    0.00260417  45 t-inv F
 -0.000000 -0.166667 -0.250000    0.00260417  46 t-inv F
 -0.000000  0.166667 -0.250000    0.00260417  46 t-inv F spinflp
  0.000000 -0.166667  0.250000    0.00260417  46 t-inv F spinflp
 -0.125000 -0.166667 -0.250000    0.00260417  47 t-inv F
 -0.125000  0.166667 -0.250000    0.00260417  47 t-inv F spinflp
  0.125000 -0.166667  0.250000    0.00260417  47 t-inv F spinflp
 -0.125000 -0.166667  0.250000    0.00260417  47 t-inv F spinflp
  0.125000  0.166667 -0.250000    0.00260417  47 t-inv F spinflp
  0.125000 -0.166667 -0.250000    0.00260417  47 t-inv F
 -0.125000  0.166667  0.250000    0.00260417  47 t-inv F
 -0.250000 -0.166667 -0.250000    0.00260417  48 t-inv F
 -0.250000  0.166667 -0.250000    0.00260417  48 t-inv F spinflp
  0.250000 -0.166667  0.250000    0.00260417  48 t-inv F spinflp
 -0.250000 -0.166667  0.250000    0.00260417  48 t-inv F spinflp
  0.250000  0.166667 -0.250000    0.00260417  48 t-inv F spinflp
  0.250000 -0.166667 -0.250000    0.00260417  48 t-inv F
 -0.250000  0.166667  0.250000    0.00260417  48 t-inv F
 -0.375000 -0.166667 -0.250000    0.00260417  49 t-inv F
 -0.375000  0.166667 -0.250000    0.00260417  49 t-inv F spinflp
  0.375000 -0.166667  0.250000    0.00260417  49 t-inv F spinflp
 -0.375000 -0.166667  0.250000    0.00260417  49 t-inv F spinflp
  0.375000  0.166667 -0.250000    0.00260417  49 t-inv F spinflp
  0.375000 -0.166667 -0.250000    0.00260417  49 t-inv F
 -0.375000  0.166667  0.250000    0.00260417  49 t-inv F
 -0.500000 -0.166667 -0.250000    0.00260417  50 t-inv F
 -0.500000  0.166667 -0.250000    0.00260417  50 t-inv F spinflp
  0.500000 -0.166667  0.250000    0.00260417  50 t-inv F spinflp
 -0.000000 -0.333333 -0.250000    0.00260417  51 t-inv F
 -0.000000  0.333333 -0.250000    0.00260417  51 t-inv F spinflp
  0.000000 -0.333333  0.250000    0.00260417  51 t-inv F spinflp
 -0.125000 -0.333333 -0.250000    0.00260417  52 t-inv F
 -0.125000  0.333333 -0.250000    0.00260417  52 t-inv F spinflp
  0.125000 -0.333333  0.250000    0.00260417  52 t-inv F spinflp
 -0.125000 -0.333333  0.250000    0.00260417  52 t-inv F spinflp
  0.125000  0.333333 -0.250000    0.00260417  52 t-inv F spinflp
  0.125000 -0.333333 -0.250000    0.00260417  52 t-inv F
 -0.125000  0.333333  0.250000    0.00260417  52 t-inv F
 -0.250000 -0.333333 -0.250000    0.00260417  53 t-inv F
 -0.250000  0.333333 -0.250000    0.00260417  53 t-inv F spinflp
  0.250000 -0.333333  0.250000    0.00260417  53 t-inv F spinflp
 -0.250000 -0.333333  0.250000    0.00260417  53 t-inv F spinflp
  0.250000  0.333333 -0.250000    0.00260417  53 t-inv F spinflp
  0.250000 -0.333333 -0.250000    0.00260417  53 t-inv F
 -0.250000  0.333333  0.250000    0.00260417  53 t-inv F
 -0.375000 -0.333333 -0.250000    0.00260417  54 t-inv F
 -0.375000  0.333333 -0.250000    0.00260417  54 t-inv F spinflp
  0.375000 -0.333333  0.250000    0.00260417  54 t-inv F spinflp
 -0.375000 -0.333333  0.250000    0.00260417  54 t-inv F spinflp
  0.375000  0.333333 -0.250000    0.00260417  54 t-inv F spinflp
  0.375000 -0.333333 -0.250000    0.00260417  54 t-inv F
 -0.375000  0.333333  0.250000    0.00260417  54 t-inv F
 -0.500000 -0.333333 -0.250000    0.00260417  55 t-inv F
 -0.500000  0.333333 -0.250000    0.00260417  55 t-inv F spinflp
  0.500000 -0.333333  0.250000    0.00260417  55 t-inv F spinflp
 -0.000000 -0.500000 -0.250000    0.00260417  56 t-inv F
 -0.125000 -0.500000 -0.250000    0.00260417  57 t-inv F
 -0.125000 -0.500000  0.250000    0.00260417  57 t-inv F spinflp
  0.125000  0.500000 -0.250000    0.00260417  57 t-inv F spinflp
 -0.250000 -0.500000 -0.250000    0.00260417  58 t-inv F
 -0.250000 -0.500000  0.250000    0.00260417  58 t-inv F spinflp
  0.250000  0.500000 -0.250000    0.00260417  58 t-inv F spinflp
 -0.375000 -0.500000 -0.250000    0.00260417  59 t-inv F
 -0.375000 -0.500000  0.250000    0.00260417  59 t-inv F spinflp
  0.375000  0.500000 -0.250000    0.00260417  59 t-inv F spinflp
 -0.500000 -0.500000 -0.250000    0.00260417  60 t-inv F
 -0.000000 -0.000000 -0.375000    0.00260417  61 t-inv F
 -0.125000 -0.000000 -0.375000    0.00260417  62 t-inv F
 -0.125000 -0.000000  0.375000    0.00260417  62 t-inv F spinflp
  0.125000  0.000000 -0.375000    0.00260417  62 t-inv F spinflp
 -0.250000 -0.000000 -0.375000    0.00260417  63 t-inv F
 -0.250000 -0.000000  0.375000    0.00260417  63 t-inv F spinflp
  0.250000  0.000000 -0.375000    0.00260417  63 t-inv F spinflp
 -0.375000 -0.000000 -0.375000    0.00260417  64 t-inv F
 -0.375000 -0.000000  0.375000    0.00260417  64 t-inv F spinflp
  0.375000  0.000000 -0.375000    0.00260417  64 t-inv F spinflp
 -0.500000 -0.000000 -0.375000    0.00260417  65 t-inv F
 -0.000000 -0.166667 -0.375000    0.00260417  66 t-inv F
 -0.000000  0.166667 -0.375000    0.00260417  66 t-inv F spinflp
  0.000000 -0.166667  0.375000    0.00260417  66 t-inv F spinflp
 -0.125000 -0.166667 -0.375000    0.00260417  67 t-inv F
 -0.125000  0.166667 -0.375000    0.00260417  67 t-inv F spinflp
  0.125000 -0.166667  0.375000    0.00260417  67 t-inv F spinflp
 -0.125000 -0.166667  0.375000    0.00260417  67 t-inv F spinflp
  0.125000  0.166667 -0.375000    0.00260417  67 t-inv F spinflp
  0.125000 -0.166667 -0.375000    0.00260417  67 t-inv F
 -0.125000  0.166667  0.375000    0.00260417  67 t-inv F
 -0.250000 -0.166667 -0.375000    0.00260417  68 t-inv F
 -0.250000  0.166667 -0.375000    0.00260417  68 t-inv F spinflp
  0.250000 -0.166667  0.375000    0.00260417  68 t-inv F spinflp
 -0.250000 -0.166667  0.375000    0.00260417  68 t-inv F spinflp
  0.250000  0.166667 -0.375000    0.00260417  68 t-inv F spinflp
  0.250000 -0.166667 -0.375000    0.00260417  68 t-inv F
 -0.250000  0.166667  0.375000    0.00260417  68 t-inv F
 -0.375000 -0.166667 -0.375000    0.00260417  69 t-inv F
 -0.375000  0.166667 -0.375000    0.00260417  69 t-inv F spinflp
  0.375000 -0.166667  0.375000    0.00260417  69 t-inv F spinflp
 -0.375000 -0.166667  0.375000    0.00260417  69 t-inv F spinflp
  0.375000  0.166667 -0.375000    0.00260417  69 t-inv F spinflp
  0.375000 -0.166667 -0.375000    0.00260417  69 t-inv F
 -0.375000  0.166667  0.375000    0.00260417  69 t-inv F
 -0.500000 -0.166667 -0.375000    0.00260417  70 t-inv F
 -0.500000  0.166667 -0.375000    0.00260417  70 t-inv F spinflp
  0.500000 -0.166667  0.375000    0.00260417  70 t-inv F spinflp
 -0.000000 -0.333333 -0.375000    0.00260417  71 t-inv F
 -0.000000  0.333333 -0.375000    0.00260417  71 t-inv F spinflp
  0.000000 -0.333333  0.375000    0.00260417  71 t-inv F spinflp
 -0.125000 -0.333333 -0.375000    0.00260417  72 t-inv F
 -0.125000  0.333333 -0.375000    0.00260417  72 t-inv F spinflp
  0.125000 -0.333333  0.375000    0.00260417  72 t-inv F spinflp
 -0.125000 -0.333333  0.375000    0.00260417  72 t-inv F spinflp
  0.125000  0.333333 -0.375000    0.00260417  72 t-inv F spinflp
  0.125000 -0.333333 -0.375000    0.00260417  72 t-inv F
 -0.125000  0.333333  0.375000    0.00260417  72 t-inv F
 -0.250000 -0.333333 -0.375000    0.00260417  73 t-inv F
 -0.250000  0.333333 -0.375000    0.00260417  73 t-inv F spinflp
  0.250000 -0.333333  0.375000    0.00260417  73 t-inv F spinflp
 -0.250000 -0.333333  0.375000    0.00260417  73 t-inv F spinflp
  0.250000  0.333333 -0.375000    0.00260417  73 t-inv F spinflp
  0.250000 -0.333333 -0.375000    0.00260417  73 t-inv F
 -0.250000  0.333333  0.375000    0.00260417  73 t-inv F
 -0.375000 -0.333333 -0.375000    0.00260417  74 t-inv F
 -0.375000  0.333333 -0.375000    0.00260417  74 t-inv F spinflp
  0.375000 -0.333333  0.375000    0.00260417  74 t-inv F spinflp
 -0.375000 -0.333333  0.375000    0.00260417  74 t-inv F spinflp
  0.375000  0.333333 -0.375000    0.00260417  74 t-inv F spinflp
  0.375000 -0.333333 -0.375000    0.00260417  74 t-inv F
 -0.375000  0.333333  0.375000    0.00260417  74 t-inv F
 -0.500000 -0.333333 -0.375000    0.00260417  75 t-inv F
 -0.500000  0.333333 -0.375000    0.00260417  75 t-inv F spinflp
  0.500000 -0.333333  0.375000    0.00260417  75 t-inv F spinflp
 -0.000000 -0.500000 -0.375000    0.00260417  76 t-inv F
 -0.125000 -0.500000 -0.375000    0.00260417  77 t-inv F
 -0.125000 -0.500000  0.375000    0.00260417  77 t-inv F spinflp
  0.125000  0.500000 -0.375000    0.00260417  77 t-inv F spinflp
 -0.250000 -0.500000 -0.375000    0.00260417  78 t-inv F
 -0.250000 -0.500000  0.375000    0.00260417  78 t-inv F spinflp
  0.250000  0.500000 -0.375000    0.00260417  78 t-inv F spinflp
 -0.375000 -0.500000 -0.375000    0.00260417  79 t-inv F
 -0.375000 -0.500000  0.375000    0.00260417  79 t-inv F spinflp
  0.375000  0.500000 -0.375000    0.00260417  79 t-inv F spinflp
 -0.500000 -0.500000 -0.375000    0.00260417  80 t-inv F
 -0.125000 -0.000000 -0.500000    0.00260417  82 t-inv F
 -0.250000 -0.000000 -0.500000    0.00260417  83 t-inv F
 -0.375000 -0.000000 -0.500000    0.00260417  84 t-inv F
 -0.000000 -0.166667 -0.500000    0.00260417  86 t-inv F
 -0.125000 -0.166667 -0.500000    0.00260417  87 t-inv F
 -0.125000  0.166667 -0.500000    0.00260417  87 t-inv F spinflp
  0.125000 -0.166667  0.500000    0.00260417  87 t-inv F spinflp
 -0.250000 -0.166667 -0.500000    0.00260417  88 t-inv F
 -0.250000  0.166667 -0.500000    0.00260417  88 t-inv F spinflp
  0.250000 -0.166667  0.500000    0.00260417  88 t-inv F spinflp
 -0.375000 -0.166667 -0.500000    0.00260417  89 t-inv F
 -0.375000  0.166667 -0.500000    0.00260417  89 t-inv F spinflp
  0.375000 -0.166667  0.500000    0.00260417  89 t-inv F spinflp
 -0.500000 -0.166667 -0.500000    0.00260417  90 t-inv F
 -0.000000 -0.333333 -0.500000    0.00260417  91 t-inv F
 -0.125000 -0.333333 -0.500000    0.00260417  92 t-inv F
 -0.125000  0.333333 -0.500000    0.00260417  92 t-inv F spinflp
  0.125000 -0.333333  0.500000    0.00260417  92 t-inv F spinflp
 -0.250000 -0.333333 -0.500000    0.00260417  93 t-inv F
 -0.250000  0.333333 -0.500000    0.00260417  93 t-inv F spinflp
  0.250000 -0.333333  0.500000    0.00260417  93 t-inv F spinflp
 -0.375000 -0.333333 -0.500000    0.00260417  94 t-inv F
 -0.375000  0.333333 -0.500000    0.00260417  94 t-inv F spinflp
  0.375000 -0.333333  0.500000    0.00260417  94 t-inv F spinflp
 -0.500000 -0.333333 -0.500000    0.00260417  95 t-inv F
 -0.125000 -0.500000 -0.500000    0.00260417  97 t-inv F
 -0.250000 -0.500000 -0.500000    0.00260417  98 t-inv F
 -0.375000 -0.500000 -0.500000    0.00260417  99 t-inv F


--------------------------------------------------------------------------------------------------------




 Dimension of arrays:
   k-points           NKPTS =    100   k-points in BZ     NKDIM =    100   number of bands    NBANDS=    256
   number of dos      NEDOS =    301   number of ions     NIONS =     84
   non local maximal  LDIM  =      6   non local SUM 2l+1 LMDIM =     18
   total plane-waves  NPLWV = 622080
   max r-space proj   IRMAX =      1   max aug-charges    IRDMAX= 179496
   dimension x,y,z NGX =    72 NGY =  108 NGZ =   80
   dimension x,y,z NGXF=   144 NGYF=  216 NGZF=  160
   support grid    NGXF=   288 NGYF=  432 NGZF=  320
   ions per type =               4  24  16  36   4
   NGX,Y,Z   is equivalent  to a cutoff of  14.37, 15.04, 15.70 a.u.
   NGXF,Y,Z  is equivalent  to a cutoff of  28.74, 30.08, 31.41 a.u.

 SYSTEM =  unknown system                          
 POSCAR =  crystal                                 

 Startparameter for this run:
   NWRITE =      2    write-flag & timer
   PREC   = accura    normal or accurate (medium, high low for compatibility)
   ISTART =      1    job   : 0-new  1-cont  2-samecut
   ICHARG =     11    charge: 1-file 2-atom 10-const
   ISPIN  =      2    spin polarized calculation?
   LNONCOLLINEAR =      F non collinear calculations
   LSORBIT =      F    spin-orbit coupling
   INIWAV =      1    electr: 0-lowe 1-rand  2-diag
   LASPH  =      T    aspherical Exc in radial PAW
 Electronic Relaxation 1
   ENCUT  =  708.0 eV  52.04 Ry    7.21 a.u.  18.07 25.90 18.37*2*pi/ulx,y,z
   ENINI  =  708.0     initial cutoff
   ENAUG  =  708.0 eV  augmentation charge cutoff
   NELM   =     60;   NELMIN=  2; NELMDL=  0     # of ELM steps 
   EDIFF  = 0.1E-09   stopping-criterion for ELM
   LREAL  =      F    real-space projection
   NLSPLINE    = F    spline interpolate recip. space projectors
   LCOMPAT=      F    compatible to vasp.4.4
   GGA_COMPAT  = F    GGA compatible to vasp.4.4-vasp.4.6
   LMAXPAW     = -100 max onsite density
   LMAXMIX     =    4 max onsite mixed and CHGCAR
   VOSKOWN=      0    Vosko Wilk Nusair interpolation
   ROPT   =    0.00000   0.00000   0.00000   0.00000
   ROPT   =    0.00000
 Ionic relaxation
   EDIFFG = -.5E-02   stopping-criterion for IOM
   NSW    =      0    number of steps for IOM
   NBLOCK =      1;   KBLOCK =      1    inner block; outer block 
   IBRION =     -1    ionic relax: 0-MD 1-quasi-New 2-CG
   NFREE  =      0    steps in history (QN), initial steepest desc. (CG)
   ISIF   =      3    stress and relaxation
   IWAVPR =     10    prediction:  0-non 1-charg 2-wave 3-comb
   ISYM   =      2    0-nonsym 1-usesym 2-fastsym
   LCORR  =      T    Harris-Foulkes like correction to forces

   POTIM  = 0.5000    time-step for ionic-motion
   TEIN   =    0.0    initial temperature
   TEBEG  =    0.0;   TEEND  =   0.0 temperature during run
   SMASS  =  -3.00    Nose mass-parameter (am)
   estimated Nose-frequenzy (Omega)   =  0.10E-29 period in steps = 0.13E+47 mass=  -0.159E-26a.u.
   SCALEE = 1.0000    scale energy and forces
   NPACO  =    256;   APACO  = 16.0  distance and # of slots for P.C.
   PSTRESS=    0.0 pullay stress

  Mass of Ions in am
   POMASS =  54.94 16.00 12.01  1.00 14.00
  Ionic Valenz
   ZVAL   =  13.00  6.00  4.00  1.00  5.00
  Atomic Wigner-Seitz radii
   RWIGS  =  -1.00 -1.00 -1.00 -1.00 -1.00
  virtual crystal weights 
   VCA    =   1.00  1.00  1.00  1.00  1.00
   NELECT =     316.0000    total number of electrons
   NUPDOWN=      -1.0000    fix difference up-down

 DOS related values:
   EMIN   =  10.00;   EMAX   =-10.00  energy-range for DOS
   EFERMI =   0.00
   ISMEAR =     0;   SIGMA  =   0.05  broadening in eV -4-tet -1-fermi 0-gaus

 Electronic relaxation 2 (details)
   IALGO  =     38    algorithm
   LDIAG  =      T    sub-space diagonalisation (order eigenvalues)
   LSUBROT=      F    optimize rotation matrix (better conditioning)
   TURBO    =      0    0=normal 1=particle mesh
   IRESTART =      0    0=no restart 2=restart with 2 vectors
   NREBOOT  =      0    no. of reboots
   NMIN     =      0    reboot dimension
   EREF     =   0.00    reference energy to select bands
   IMIX   =      4    mixing-type and parameters
     AMIX     =   0.40;   BMIX     =  1.00
     AMIX_MAG =   1.60;   BMIX_MAG =  1.00
     AMIN     =   0.10
     WC   =   100.;   INIMIX=   1;  MIXPRE=   1;  MAXMIX= -45

 Intra band minimization:
   WEIMIN = 0.0000     energy-eigenvalue tresh-hold
   EBREAK =  0.98E-13  absolut break condition
   DEPER  =   0.30     relativ break condition  

   TIME   =   0.40     timestep for ELM

  volume/ion in A,a.u.               =      10.03        67.65
  Fermi-wavevector in a.u.,A,eV,Ry     =   1.180814  2.231415 18.970900  1.394322
  Thomas-Fermi vector in A             =   2.317099
 
 Write flags
   LWAVE        =      T    write WAVECAR
   LDOWNSAMPLE  =      F    k-point downsampling of WAVECAR
   LCHARG       =      T    write CHGCAR
   LVTOT        =      F    write LOCPOT, total local potential
   LVHAR        =      F    write LOCPOT, Hartree potential only
   LELF         =      F    write electronic localiz. function (ELF)
   LORBIT       =     11    0 simple, 1 ext, 2 COOP (PROOUT), +10 PAW based schemes


 Dipole corrections
   LMONO  =      F    monopole corrections only (constant potential shift)
   LDIPOL =      F    correct potential (dipole corrections)
   IDIPOL =      0    1-x, 2-y, 3-z, 4-all directions 
[...]
  186          m_sumb_d                              1.434024                          2   4
  187        fordep                                2.483197                            1   3
  188          setdij_                               2.477190                          6   4
  189            fft3d_mpi                             0.912533                       24   5
  190              fftbas_plan_mpi                       0.861794                     24   6
  191                dfftw_execute                         0.156657                   72   7
  192                map_backward                          0.188001                   24   7
  193                  map_gather                            0.007142                 12   8
  194                  m_alltoallv_z                         0.176535                 12   8
  195                  map_scatter                           0.001782                 12   8
  196                map_forward                           0.500005                   24   7
  197                  map_gather                            0.074679                 12   8
  198                  m_alltoallv_z                         0.112368                 12   8
  199                  map_scatter                           0.312748                 12   8
  200            m_sumb_d                              0.157338                        6   5
  201        setdij_                               8.591717                           20   3
  202          fft3d_mpi                             3.332948                         80   4
  203            fftbas_plan_mpi                       3.163445                       80   5
  204              dfftw_execute                         0.540009                    240   6
  205              map_backward                          0.860716                     80   6
  206                map_gather                            0.024071                   40   7
  207                m_alltoallv_z                         0.828589                   40   7
  208                map_scatter                           0.007142                   40   7
  209              map_forward                           1.730543                     80   6
  210                map_gather                            0.260568                   40   7
  211                m_alltoallv_z                         0.379552                   40   7
  212                map_scatter                           1.089796                   40   7
  213          m_sumb_d                              0.553616                         20   4
  214        set_dd_magatom                        0.000352                            1   3
  215        set_dd_paw                            0.665502                            1   3
  216          set_rsgf_all                          0.001246                          1   4
  217          m_sumb_d                              0.655176                          8   4
  218        strkin                                0.113209                            1   3
  219          m_sumb_d                              0.001858                          1   4
  220        strelo                                0.007672                            1   3
  221          m_sumb_d                              0.000922                          2   4
  222        strenl                              265.856853                            1   3
  223          spher                                42.464903                         19   4
  224          phase                                35.843548                        450   4
  225          proj1                               179.572698                       3600   4
  226            crexp_mul_wave                       86.261168                   302400   5
  227          m_sumb_d                              7.596377                          1   4
  228        fft3d_mpi                             0.084655                           22   3
  229          fftbas_plan_mpi                       0.082738                         22   4
  230            dfftw_execute                         0.025919                       66   5
  231            map_forward                           0.023108                       20   5
  232              map_gather                            0.003446                     10   6
  233              m_alltoallv_z                         0.015765                     10   6
  234              map_scatter                           0.003864                     10   6
  235            map_backward                          0.028910                       24   5
  236              map_gather                            0.006138                     12   6
  237              m_alltoallv_z                         0.020082                     12   6
  238              map_scatter                           0.002640                     12   6
  239        m_sumb_d                              0.003732                            5   3
  240        forhar                                0.033909                            2   3
  241          m_sumb_d                              0.002292                          2   4
  242        strehar                               0.005164                            1   3
  243          m_sumb_d                              0.000059                          1   4
  244        chggra                                0.016931                            1   3
  245          fft3d_mpi                             0.010930                          3   4
  246            fftbas_plan_mpi                       0.010675                        3   5
  247              dfftw_execute                         0.003632                      9   6
  248              map_backward                          0.001668                      2   6
  249                map_gather                            0.000455                    1   7
  250                m_alltoallv_z                         0.001125                    1   7
  251                map_scatter                           0.000086                    1   7
  252              map_forward                           0.004680                      4   6
  253                map_gather                            0.000499                    2   7
  254                m_alltoallv_z                         0.003494                    2   7
  255                map_scatter                           0.000678                    2   7
  256          m_sumb_d                              0.000014                          2   4
  257          pothar                                0.000613                          1   4
  258            m_sumb_d                              0.000410                        1   5
  259        m_bcast_d                             0.583370                            2   3
  260      potlok                                0.260261                              1   2
  261        fft3d_mpi                             0.137382                           26   3
  262          fftbas_plan_mpi                       0.129926                         26   4
  263            dfftw_execute                         0.037653                       78   5
  264            map_forward                           0.035210                       28   5
  265              map_gather                            0.003554                     16   6
  266              m_alltoallv_z                         0.023917                     16   6
  267              map_scatter                           0.007692                     16   6
  268            map_backward                          0.051868                       24   5
  269              map_gather                            0.005351                     12   6
  270              m_alltoallv_z                         0.043923                     12   6
  271              map_scatter                           0.002554                     12   6
  272        m_sumb_d                              0.000314                            5   3
  273        pothar                                0.000950                            1   3
  274          m_sumb_d                              0.000547                          1   4
  275        m_bcast_d                             0.029633                            2   3
  276      potlok_metagga                        0.000004                              1   2
  277      set_dd_magatom                        0.000352                              1   2
  278      set_dd_paw                            0.561010                              1   2
  279        set_rsgf_all                          0.000901                            1   3
  280        m_sumb_d                              0.553997                            8   3
  281      densta                                0.042000                              1   2
  282        m_sumb_d                              0.019181                           13   3
 
 Flat profile
 ============
 
             routine name                   CPU           calls
 ---------------------------------------------------------------
 fft3d                                1252.189584       62700
 gemm                                  588.036269     1072512
 proj1                                 543.454609       13168
 calc_polarization                     537.133710           1
 m_alltoall_d                          397.341106      207648
 work_mul_crexp                        394.801345     1072512
 crexp_mul_wave                        335.079174     1106112
 fftwav                                322.831593       31500
 eddav                                 299.799435           9
 vhamil                                267.012853       12768
 total_time                            146.337983           1
 m_bcast_z                             139.722938      105583
 orth1                                 133.421804       38704
 phase                                 121.966237        1451
 m_sumb_d                              102.901319       97299
 redis_pw                               52.083385       65392
 spher                                  45.387422          20
 fornl                                  43.233536           1
 eccp                                   42.491732        3600
 fftext_mpi                             28.905206       31200
 pdssyex_zheevx                         16.996627         900
 sphpro_fast                            14.369724           2
 lincom                                 13.185236        1000
 w1_copy                                 7.994803       43104
 setdij_                                 6.835540          29
 hamiltmu                                6.275939       12768
 kinhamil                                3.005666       12768
 apply_precond                           2.797655        9168
 vnlac0                                  2.633432       12768
 overl1                                  2.473815       12768
 pw_charge                               2.356663         300
 m_alltoallv_z                           2.052923         210
 map_scatter                             1.622427         210
 force_and_stress                        1.569247           1
 overl                                   1.241057       22036
 elmin                                   1.190516           1
 m_bcast_d                               1.078194       25869
 dfftw_execute                           0.921375         612
 setup_precond                           0.650444        3600
 fft3d_mpi                               0.599322       31404
 redis_proj                              0.498134       74660
 augmentation_charge                     0.484813           1
 map_gather                              0.460781         210
 strenl                                  0.379327           1
 choleski                                0.346929         100
 potlok                                  0.200490           2
 newband                                 0.182174       13668
 fftwav_mpi                              0.157383       31500
 fftbas_plan_mpi                         0.116031         204
 strkin                                  0.111351           1
 set_charge                              0.110295           1
 orthch                                  0.077981           1
 densta                                  0.050881          10
 soft_charge                             0.048380           1
 truncate_high_frequency_w1              0.047653       16368
 w1_projall                              0.045329        9168
 fewald                                  0.038323           1
 forhar                                  0.031617           2
 stufak                                  0.030016           2
 set_dd_paw                              0.027590           3
 forloc                                  0.017425           1
 strelo                                  0.006750           1
 fordep                                  0.006007           1
 inisym                                  0.005917           1
 chggra                                  0.005374           1
 strehar                                 0.005105           1
 proj                                    0.004004          50
 map_backward                            0.003822         202
 map_forward                             0.003494         206
 set_rsgf_all                            0.003451           3
 depsum                                  0.002223           1
 pothar                                  0.001583           3
 set_dd_magatom                          0.001160           3
 fft_gq                                  0.000511           1
 rsp                                     0.000412           1
 FERMAT_RAZOR                            0.000385           1
 vectorpot                               0.000297           2
 rcp                                     0.000115           1
 posmap                                  0.000048           2
 crpa_reader                             0.000026           1
 potlok_metagga                          0.000005           2
 rotate_active_occupied_orbital          0.000001           1
 redis_pw_over_bands                     0.000000           1
 ---------------------------------------------------------------
  summed up times    5887.49543404579     
 
 Accumulative profile
 ====================
 
             routine name                   CPU           calls
 ---------------------------------------------------------------
 total_time                           5887.495434           1
 elmin                                3543.105390           1
 eddav                                3540.568792           9
 calc_polarization                    1662.704806           1
 hamiltmu                             1497.374353       12768
 fft3d                                1252.189584       62700
 vnlac0                                985.471046       12768
 fftwav_mpi                            980.818963       31500
 fftwav                                980.661580       31500
 proj1                                 878.533783       13168
 w1_projall                            676.636786        9168
 fftext_mpi                            623.589261       31200
 fft3d_mpi                             600.139772       31404
 gemm                                  588.036269     1072512
 m_alltoall_d                          397.341106      207648
 work_mul_crexp                        394.801345     1072512
 force_and_stress                      342.078433           1
 crexp_mul_wave                        335.079174     1106112
 redis_pw                              272.694797       65392
 vhamil                                267.012853       12768
 strenl                                265.856853           1
 kinhamil                              236.140700       12768
 redis_proj                            177.227828       74660
 newband                               168.308859       13668
 m_bcast_z                             139.722938      105583
 orth1                                 133.421804       38704
 phase                                 121.966237        1451
 m_sumb_d                              102.901319       97299
 fornl                                  48.561124           1
 spher                                  45.387422          20
 eccp                                   42.491732        3600
 proj                                   22.373631          50
 pdssyex_zheevx                         16.997012         900
 sphpro_fast                            15.107796           2
 set_charge                             13.484316           1
 lincom                                 13.185236        1000
 soft_charge                            12.610459           1
 setdij_                                12.502953          29
 w1_copy                                 7.994803       43104
 fftbas_plan_mpi                         5.180853         204
 orthch                                  4.528172           1
 apply_precond                           2.797655        9168
 map_forward                             2.603977         206
 fordep                                  2.483197           1
 overl1                                  2.473815       12768
 pw_charge                               2.356663         300
 m_alltoallv_z                           2.052923         210
 set_dd_paw                              1.778414           3
 map_scatter                             1.622427         210
 map_backward                            1.539470         202
 overl                                   1.241057       22036
 m_bcast_d                               1.078194       25869
 dfftw_execute                           0.921375         612
 setup_precond                           0.650444        3600
 augmentation_charge                     0.640468           1
 potlok                                  0.531141           2
 map_gather                              0.460781         210
 choleski                                0.346929         100
 strkin                                  0.113209           1
 depsum                                  0.102656           1
 densta                                  0.086785          10
 truncate_high_frequency_w1              0.047653       16368
 fewald                                  0.039340           1
 forhar                                  0.033909           2
 stufak                                  0.030016           2
 fft_gq                                  0.020865           1
 forloc                                  0.017483           1
 chggra                                  0.016931           1
 strelo                                  0.007672           1
 inisym                                  0.005965           1
 strehar                                 0.005164           1
 set_rsgf_all                            0.003451           3
 pothar                                  0.002727           3
 set_dd_magatom                          0.001160           3
 rsp                                     0.000412           1
 FERMAT_RAZOR                            0.000385           1
 vectorpot                               0.000297           2
 rcp                                     0.000115           1
 posmap                                  0.000048           2
 crpa_reader                             0.000026           1
 potlok_metagga                          0.000005           2
 rotate_active_occupied_orbital          0.000001           1
 redis_pw_over_bands                     0.000000           1
 ---------------------------------------------------------------
 
Profiling took   1.704419  0.715850  0.003044  0.001683 seconds
Profiling took   2.278887 seconds
