 vasp.5.4.4.18Apr17-6-g9f103f2a35 (build Apr 27 2017 14:21:45) complex          
  
 executed on      LinuxIFC_2017xe date 2022.03.19  13:42:51
 running on   60 total cores
 distrk:  each k-point on   60 cores,    1 groups
 distr:  one band on NCORES_PER_BAND=   1 cores,   60 groups


--------------------------------------------------------------------------------------------------------


 INCAR:
 POTCAR:   PAW_PBE Co 06Sep2000                   
 POTCAR:   PAW_PBE O 08Apr2002                    
 POTCAR:   PAW_PBE C 08Apr2002                    
 POTCAR:   PAW_PBE H 15Jun2001                    
 POTCAR:   PAW_PBE N 08Apr2002                    

 ----------------------------------------------------------------------------- 
|                                                                             |
|           W    W    AA    RRRRR   N    N  II  N    N   GGGG   !!!           |
|           W    W   A  A   R    R  NN   N  II  NN   N  G    G  !!!           |
|           W    W  A    A  R    R  N N  N  II  N N  N  G       !!!           |
|           W WW W  AAAAAA  RRRRR   N  N N  II  N  N N  G  GGG   !            |
|           WW  WW  A    A  R   R   N   NN  II  N   NN  G    G                |
|           W    W  A    A  R    R  N    N  II  N    N   GGGG   !!!           |
|                                                                             |
|      For optimal performance we recommend to set                            |
|        NCORE= 4 - approx SQRT( number of cores)                             |
|      NCORE specifies how many cores store one orbital (NPAR=cpu/NCORE).     |
|      This setting can  greatly improve the performance of VASP for DFT.     |
|      The default,   NCORE=1            might be grossly inefficient         |
|      on modern multi-core architectures or massively parallel machines.     |
|      Do your own testing !!!!                                               |
|      Unfortunately you need to use the default for GW and RPA calculations. |
|      (for HF NCORE is supported but not extensively tested yet)             |
|                                                                             |
 ----------------------------------------------------------------------------- 

 POTCAR:   PAW_PBE Co 06Sep2000                   
   VRHFIN =Co: d8 s1                                                            
   LEXCH  = PE                                                                  
   EATOM  =   813.5563 eV,   59.7947 Ry                                         
                                                                                
   TITEL  = PAW_PBE Co 06Sep2000                                                
   LULTRA =        F    use ultrasoft PP ?                                      
   IUNSCR =        1    unscreen: 0-lin 1-nonlin 2-no                           
   RPACOR =    2.000    partial core radius                                     
   POMASS =   58.933; ZVAL   =    9.000    mass and valenz                      
   RCORE  =    2.300    outmost cutoff radius                                   
   RWIGS  =    2.460; RWIGS  =    1.302    wigner-seitz radius (au A)           
   ENMAX  =  267.969; ENMIN  =  200.977 eV                                      
   RCLOC  =    1.697    cutoff for local pot                                    
   LCOR   =        T    correct aug charges                                     
   LPAW   =        T    paw PP                                                  
   EAUG   =  477.818                                                            
   DEXC   =    -.016                                                            
   RMAX   =    2.817    core radius for proj-oper                               
   RAUG   =    1.300    factor for augmentation sphere                          
   RDEP   =    2.393    radius for radial grids                                 
   QCUT   =   -4.438; QGAM   =    8.876    optimization parameters              
                                                                                
   Description                                                                  
     l     E      TYP  RCUT    TYP  RCUT                                        
     2   .000     23  2.300                                                     
     2   .000     23  2.300                                                     
     0   .000     23  2.300                                                     
     0   .000     23  2.300                                                     
     1  -.200     23  2.300                                                     
     1   .000     23  2.300                                                     
     3   .000      7   .000                                                     
  local pseudopotential read in
  partial core-charges read in
  atomic valenz-charges read in
  non local Contribution for L=           2  read in
    real space projection operators read in
  non local Contribution for L=           2  read in
    real space projection operators read in
  non local Contribution for L=           0  read in
    real space projection operators read in
  non local Contribution for L=           0  read in
    real space projection operators read in
  non local Contribution for L=           1  read in
    real space projection operators read in
  non local Contribution for L=           1  read in
    real space projection operators read in
    PAW grid and wavefunctions read in
 
   number of l-projection  operators is LMAX  =           6
   number of lm-projection operators is LMMAX =          18
 
 POTCAR:   PAW_PBE O 08Apr2002                    
   VRHFIN =O: s2p4                                                              
   LEXCH  = PE                                                                  
   EATOM  =   432.3788 eV,   31.7789 Ry                                         
                                                                                
   TITEL  = PAW_PBE O 08Apr2002                                                 
   LULTRA =        F    use ultrasoft PP ?                                      
   IUNSCR =        0    unscreen: 0-lin 1-nonlin 2-no                           
   RPACOR =     .000    partial core radius                                     
   POMASS =   16.000; ZVAL   =    6.000    mass and valenz                      
   RCORE  =    1.520    outmost cutoff radius                                   
   RWIGS  =    1.550; RWIGS  =     .820    wigner-seitz radius (au A)           
   ENMAX  =  400.000; ENMIN  =  300.000 eV                                      
   ICORE  =        2    local potential                                         
   LCOR   =        T    correct aug charges                                     
   LPAW   =        T    paw PP                                                  
   EAUG   =  605.392                                                            
   DEXC   =     .000                                                            
   RMAX   =    2.264    core radius for proj-oper                               
   RAUG   =    1.300    factor for augmentation sphere                          
   RDEP   =    1.550    radius for radial grids                                 
   QCUT   =   -5.520; QGAM   =   11.041    optimization parameters              
                                                                                
   Description                                                                  
     l     E      TYP  RCUT    TYP  RCUT                                        
     0   .000     23  1.200                                                     
     0  -.700     23  1.200                                                     
     1   .000     23  1.520                                                     
     1   .600     23  1.520                                                     
     2   .000      7  1.500                                                     
  local pseudopotential read in
  atomic valenz-charges read in
  non local Contribution for L=           0  read in
    real space projection operators read in
  non local Contribution for L=           0  read in
    real space projection operators read in
  non local Contribution for L=           1  read in
    real space projection operators read in
  non local Contribution for L=           1  read in
    real space projection operators read in
    PAW grid and wavefunctions read in
 
   number of l-projection  operators is LMAX  =           4
   number of lm-projection operators is LMMAX =           8
 
 POTCAR:   PAW_PBE C 08Apr2002                    
   VRHFIN =C: s2p2                                                              
   LEXCH  = PE                                                                  
   EATOM  =   147.1560 eV,   10.8157 Ry                                         
                                                                                
   TITEL  = PAW_PBE C 08Apr2002                                                 
   LULTRA =        F    use ultrasoft PP ?                                      
   IUNSCR =        0    unscreen: 0-lin 1-nonlin 2-no                           
   RPACOR =     .000    partial core radius                                     
   POMASS =   12.011; ZVAL   =    4.000    mass and valenz                      
   RCORE  =    1.500    outmost cutoff radius                                   
   RWIGS  =    1.630; RWIGS  =     .863    wigner-seitz radius (au A)           
   ENMAX  =  400.000; ENMIN  =  300.000 eV                                      
   ICORE  =        2    local potential                                         
   LCOR   =        T    correct aug charges                                     
   LPAW   =        T    paw PP                                                  
   EAUG   =  644.873                                                            
   DEXC   =     .000                                                            
   RMAX   =    2.266    core radius for proj-oper                               
   RAUG   =    1.300    factor for augmentation sphere                          
   RDEP   =    1.501    radius for radial grids                                 
   RDEPT  =    1.300    core radius for aug-charge                              
   QCUT   =   -5.516; QGAM   =   11.032    optimization parameters              
                                                                                
   Description                                                                  
     l     E      TYP  RCUT    TYP  RCUT                                        
     0   .000     23  1.200                                                     
     0   .000     23  1.200                                                     
     1   .000     23  1.500                                                     
     1  2.500     23  1.500                                                     
     2   .000      7  1.500                                                     
  local pseudopotential read in
  atomic valenz-charges read in
  non local Contribution for L=           0  read in
    real space projection operators read in
  non local Contribution for L=           0  read in
    real space projection operators read in
  non local Contribution for L=           1  read in
    real space projection operators read in
  non local Contribution for L=           1  read in
    real space projection operators read in
    PAW grid and wavefunctions read in
 
   number of l-projection  operators is LMAX  =           4
   number of lm-projection operators is LMMAX =           8
 
 POTCAR:   PAW_PBE H 15Jun2001                    
   VRHFIN =H: ultrasoft test                                                    
   LEXCH  = PE                                                                  
   EATOM  =    12.4884 eV,     .9179 Ry                                         
                                                                                
   TITEL  = PAW_PBE H 15Jun2001                                                 
   LULTRA =        F    use ultrasoft PP ?                                      
   IUNSCR =        0    unscreen: 0-lin 1-nonlin 2-no                           
   RPACOR =     .000    partial core radius                                     
   POMASS =    1.000; ZVAL   =    1.000    mass and valenz                      
   RCORE  =    1.100    outmost cutoff radius                                   
   RWIGS  =     .700; RWIGS  =     .370    wigner-seitz radius (au A)           
   ENMAX  =  250.000; ENMIN  =  200.000 eV                                      
   RCLOC  =     .701    cutoff for local pot                                    
   LCOR   =        T    correct aug charges                                     
   LPAW   =        T    paw PP                                                  
   EAUG   =  400.000                                                            
   RMAX   =    2.174    core radius for proj-oper                               
   RAUG   =    1.200    factor for augmentation sphere                          
   RDEP   =    1.112    radius for radial grids                                 
   QCUT   =   -5.749; QGAM   =   11.498    optimization parameters              
                                                                                
   Description                                                                  
     l     E      TYP  RCUT    TYP  RCUT                                        
     0   .000     23  1.100                                                     
     0   .500     23  1.100                                                     
     1  -.300     23  1.100                                                     
  local pseudopotential read in
  atomic valenz-charges read in
  non local Contribution for L=           0  read in
    real space projection operators read in
  non local Contribution for L=           0  read in
    real space projection operators read in
  non local Contribution for L=           1  read in
    real space projection operators read in
    PAW grid and wavefunctions read in
 
   number of l-projection  operators is LMAX  =           3
   number of lm-projection operators is LMMAX =           5
 
 POTCAR:   PAW_PBE N 08Apr2002                    
   VRHFIN =N: s2p3                                                              
   LEXCH  = PE                                                                  
   EATOM  =   264.5486 eV,   19.4438 Ry                                         
                                                                                
   TITEL  = PAW_PBE N 08Apr2002                                                 
   LULTRA =        F    use ultrasoft PP ?                                      
   IUNSCR =        0    unscreen: 0-lin 1-nonlin 2-no                           
   RPACOR =     .000    partial core radius                                     
   POMASS =   14.001; ZVAL   =    5.000    mass and valenz                      
   RCORE  =    1.500    outmost cutoff radius                                   
   RWIGS  =    1.400; RWIGS  =     .741    wigner-seitz radius (au A)           
   ENMAX  =  400.000; ENMIN  =  300.000 eV                                      
   ICORE  =        2    local potential                                         
   LCOR   =        T    correct aug charges                                     
   LPAW   =        T    paw PP                                                  
   EAUG   =  627.112                                                            
   DEXC   =     .000                                                            
   RMAX   =    2.247    core radius for proj-oper                               
   RAUG   =    1.300    factor for augmentation sphere                          
   RDEP   =    1.514    radius for radial grids                                 
   QCUT   =   -5.562; QGAM   =   11.124    optimization parameters              
                                                                                
   Description                                                                  
     l     E      TYP  RCUT    TYP  RCUT                                        
     0   .000     23  1.200                                                     
     0   .000     23  1.200                                                     
     1   .000     23  1.500                                                     
     1   .700     23  1.500                                                     
     2   .000      7  1.500                                                     
  local pseudopotential read in
  atomic valenz-charges read in
  non local Contribution for L=           0  read in
    real space projection operators read in
  non local Contribution for L=           0  read in
    real space projection operators read in
  non local Contribution for L=           1  read in
    real space projection operators read in
  non local Contribution for L=           1  read in
    real space projection operators read in
    PAW grid and wavefunctions read in
 
   number of l-projection  operators is LMAX  =           4
   number of lm-projection operators is LMMAX =           8
 

 ----------------------------------------------------------------------------- 
|                                                                             |
|  ADVICE TO THIS USER RUNNING 'VASP/VAMP'   (HEAR YOUR MASTER'S VOICE ...):  |
|                                                                             |
|      You have a (more or less) 'large supercell' and for larger cells       |
|      it might be more efficient to use real space projection operators      |
|      So try LREAL= Auto  in the INCAR   file.                               |
|      Mind: If you want to do a very accurate calculations keep the          |
|      reciprocal projection scheme          (i.e. LREAL=.FALSE.)             |
|                                                                             |
 ----------------------------------------------------------------------------- 

 PAW_PBE Co 06Sep2000                   :
 energy of atom  1       EATOM= -813.5563
 kinetic energy error for atom=    0.0006 (will be added to EATOM!!)
 PAW_PBE O 08Apr2002                    :
 energy of atom  2       EATOM= -432.3788
 kinetic energy error for atom=    0.0091 (will be added to EATOM!!)
 PAW_PBE C 08Apr2002                    :
 energy of atom  3       EATOM= -147.1560
 kinetic energy error for atom=    0.0032 (will be added to EATOM!!)
 PAW_PBE H 15Jun2001                    :
 energy of atom  4       EATOM=  -12.4884
 kinetic energy error for atom=    0.0002 (will be added to EATOM!!)
 PAW_PBE N 08Apr2002                    :
 energy of atom  5       EATOM= -264.5486
 kinetic energy error for atom=    0.0061 (will be added to EATOM!!)
 
 
 POSCAR: C3 H8 Co N2 O6                          
  positions in direct lattice
  velocities in cartesian coordinates
 exchange correlation table for  LEXCH =        8
   RHO(1)=    0.500       N(1)  =     2000
   RHO(2)=  100.500       N(2)  =     4000
 


--------------------------------------------------------------------------------------------------------


 ion  position               nearest neighbor table
   1  1.000  0.253  0.001-  10 2.10  13 2.10   5 2.11  18 2.12  28 2.14  21 2.14
   2  1.000  0.747  0.501-   9 2.10  14 2.10   6 2.11  17 2.12  27 2.14  22 2.14
   3  0.500  0.753  0.001-  12 2.10  15 2.10   7 2.11  20 2.12  26 2.14  23 2.14
   4  0.500  0.247  0.501-  11 2.10  16 2.10   8 2.11  19 2.12  25 2.14  24 2.14
   5  0.156  0.143  0.161-  33 1.26   1 2.11
   6  0.156  0.857  0.661-  34 1.26   2 2.11
   7  0.656  0.643  0.161-  35 1.26   3 2.11
   8  0.656  0.357  0.661-  36 1.26   4 2.11
   9  0.049  0.524  0.636-  37 1.27   2 2.10
  10  0.049  0.476  0.136-  38 1.27   1 2.10
  11  0.549  0.024  0.636-  39 1.27   4 2.10
  12  0.549  0.976  0.136-  40 1.27   3 2.10
  13  0.048  0.333  0.821-  37 1.27   1 2.10
  14  0.048  0.667  0.321-  38 1.27   2 2.10
  15  0.548  0.833  0.821-  39 1.27   3 2.10
  16  0.548  0.167  0.321-  40 1.27   4 2.10
  17  0.943  0.968  0.354-  41 1.26   2 2.12
  18  0.943  0.032  0.854-  42 1.26   1 2.12
  19  0.443  0.468  0.354-  43 1.26   4 2.12
  20  0.443  0.532  0.854-  44 1.26   3 2.12
  21  0.947  0.163  0.177-  41 1.28   1 2.14
  22  0.947  0.837  0.677-  42 1.28   2 2.14
  23  0.447  0.663  0.177-  43 1.28   3 2.14
  24  0.447  0.337  0.677-  44 1.28   4 2.14
  25  0.340  0.139  0.339-  33 1.28   4 2.14
  26  0.340  0.861  0.839-  34 1.28   3 2.14
  27  0.840  0.639  0.339-  35 1.28   2 2.14
  28  0.840  0.361  0.839-  36 1.28   1 2.14
  29  0.693  0.278  0.092-  57 1.09  53 1.09  49 1.09  93 1.48
  30  0.693  0.722  0.592-  58 1.09  54 1.09  50 1.09  94 1.48
  31  0.193  0.778  0.092-  59 1.09  55 1.09  51 1.09  95 1.48
  32  0.193  0.222  0.592-  60 1.09  56 1.09  52 1.09  96 1.48
  33  0.248  0.214  0.250-  61 1.11   5 1.26  25 1.28
  34  0.248  0.786  0.750-  62 1.11   6 1.26  26 1.28
  35  0.748  0.714  0.250-  63 1.11   7 1.26  27 1.28
  36  0.748  0.286  0.750-  64 1.11   8 1.26  28 1.28
  37  0.034  0.477  0.762-  65 1.11   9 1.27  13 1.27
  38  0.034  0.523  0.262-  66 1.11  10 1.27  14 1.27
  39  0.534  0.977  0.762-  67 1.11  11 1.27  15 1.27
  40  0.534  0.023  0.262-  68 1.11  12 1.27  16 1.27
  41  0.977  0.025  0.256-  69 1.11  17 1.26  21 1.28
  42  0.977  0.975  0.756-  70 1.11  18 1.26  22 1.28
  43  0.477  0.525  0.256-  71 1.11  19 1.26  23 1.28
  44  0.477  0.475  0.756-  72 1.11  20 1.26  24 1.28
  45  0.805  0.236  0.423-  81 1.09  89 1.09  85 1.09  93 1.48
  46  0.805  0.764  0.923-  82 1.09  90 1.09  86 1.09  94 1.48
  47  0.305  0.736  0.423-  83 1.09  91 1.09  87 1.09  95 1.48
  48  0.305  0.264  0.923-  84 1.09  92 1.09  88 1.09  96 1.48
  49  0.685  0.148  0.065-  29 1.09
  50  0.685  0.852  0.565-  30 1.09
  51  0.185  0.648  0.065-  31 1.09
  52  0.185  0.352  0.565-  32 1.09
  53  0.692  0.345  0.982-  29 1.09
  54  0.692  0.655  0.482-  30 1.09
  55  0.192  0.845  0.982-  31 1.09
  56  0.192  0.155  0.482-  32 1.09
  57  0.625  0.319  0.110-  29 1.09
  58  0.625  0.681  0.610-  30 1.09
  59  0.125  0.819  0.110-  31 1.09
  60  0.125  0.181  0.610-  32 1.09
  61  0.251  0.349  0.252-  33 1.11
  62  0.251  0.651  0.752-  34 1.11
  63  0.751  0.849  0.252-  35 1.11
  64  0.751  0.151  0.752-  36 1.11
  65  0.007  0.568  0.826-  37 1.11
  66  0.007  0.432  0.326-  38 1.11
  67  0.507  0.068  0.826-  39 1.11
  68  0.507  0.932  0.326-  40 1.11
  69  0.037  0.954  0.236-  41 1.11
  70  0.037  0.046  0.736-  42 1.11
  71  0.537  0.454  0.236-  43 1.11
  72  0.537  0.546  0.736-  44 1.11
  73  0.863  0.257  0.244-  93 1.06
  74  0.863  0.743  0.744-  94 1.06
  75  0.363  0.757  0.244-  95 1.06
  76  0.363  0.243  0.744-  96 1.06
  77  0.814  0.434  0.284-  93 1.06
  78  0.814  0.566  0.784-  94 1.06
  79  0.314  0.934  0.284-  95 1.06
  80  0.314  0.066  0.784-  96 1.06
  81  0.885  0.264  0.543-  45 1.09
  82  0.885  0.736  0.043-  46 1.09
  83  0.385  0.764  0.543-  47 1.09
  84  0.385  0.236  0.043-  48 1.09
  85  0.795  0.105  0.406-  45 1.09
  86  0.795  0.895  0.906-  46 1.09
  87  0.295  0.605  0.406-  47 1.09
  88  0.295  0.395  0.906-  48 1.09
  89  0.737  0.287  0.435-  45 1.09
  90  0.737  0.713  0.935-  46 1.09
  91  0.237  0.787  0.435-  47 1.09
  92  0.237  0.213  0.935-  48 1.09
  93  0.800  0.308  0.262-  77 1.06  73 1.06  29 1.48  45 1.48
  94  0.800  0.692  0.762-  78 1.06  74 1.06  30 1.48  46 1.48
  95  0.300  0.808  0.262-  79 1.06  75 1.06  31 1.48  47 1.48
  96  0.300  0.192  0.762-  80 1.06  76 1.06  32 1.48  48 1.48
 
  LATTYP: Found a simple monoclinic cell.
 ALAT       =    15.6776655767
 B/A-ratio  =     0.5258606364
 C/A-ratio  =     1.4153128759
 COS(beta)  =    -0.9540426593
  
  Lattice vectors:
  
 A1 = (  -5.1981456320,   0.0000000000, -14.7908241800)
 A2 = (   0.0000000000,  -8.2442671979,   0.0000000000)
 A3 = (   0.7456918087,   0.0000000000,  22.1762683042)


Analysis of symmetry for initial positions (statically):
=====================================================================
 Subroutine PRICEL returns following result:
 
  LATTYP: Found a base centered monoclinic cell.
 ALAT       =    14.1030690222
 B/A-ratio  =     0.5845725625
 C/A-ratio  =     1.7646639294
 COS(beta)  =    -0.8243554175
  
  Lattice vectors:
  
 A1 = (   7.0515274635,   4.1221348836,   0.0099695905)
 A2 = (   7.0515274635,  -4.1221323143,   0.0099695905)
 A3 = ( -23.7536560307,  -0.0000051385,  -7.4253224863)
 
   2 primitive cells build up your supercell.
 

 Routine SETGRP: Setting up the symmetry group for a 
 simple monoclinic supercell.


 Subroutine GETGRP returns: Found  2 space group operations
 (whereof  1 operations were pure point group operations)
 out of a pool of  4 trial point group operations.


The static configuration has the point symmetry C_1 .
 The point group associated with its full space group is C_1h.


Analysis of symmetry for dynamics (positions and initial velocities):
=====================================================================
 Subroutine PRICEL returns following result:
 
  LATTYP: Found a base centered monoclinic cell.
 ALAT       =    14.1030690222
 B/A-ratio  =     0.5845725625
 C/A-ratio  =     1.7646639294
 COS(beta)  =    -0.8243554175
  
  Lattice vectors:
  
 A1 = (   7.0515274635,   4.1221348836,   0.0099695905)
 A2 = (   7.0515274635,  -4.1221323143,   0.0099695905)
 A3 = ( -23.7536560307,  -0.0000051385,  -7.4253224863)
 
   2 primitive cells build up your supercell.
 

 Routine SETGRP: Setting up the symmetry group for a 
 simple monoclinic supercell.


 Subroutine GETGRP returns: Found  2 space group operations
 (whereof  1 operations were pure point group operations)
 out of a pool of  4 trial point group operations.


The dynamic configuration has the point symmetry C_1 .
 The point group associated with its full space group is C_1h.


Analysis of structural, dynamic, and magnetic symmetry:
=====================================================================
 Subroutine PRICEL returns following result:
 
  LATTYP: Found a base centered monoclinic cell.
 ALAT       =    14.1030690222
 B/A-ratio  =     0.5845725625
 C/A-ratio  =     1.7646639294
 COS(beta)  =    -0.8243554175
  
  Lattice vectors:
  
 A1 = (   7.0515274635,   4.1221348836,   0.0099695905)
 A2 = (   7.0515274635,  -4.1221323143,   0.0099695905)
 A3 = ( -23.7536560307,  -0.0000051385,  -7.4253224863)
 
   2 primitive cells build up your supercell.
 

 Routine SETGRP: Setting up the symmetry group for a 
 simple monoclinic supercell.


 Subroutine GETGRP returns: Found  2 space group operations
 (whereof  1 operations were pure point group operations)
 out of a pool of  4 trial point group operations.


The magnetic configuration has the point symmetry C_1 .
 The point group associated with its full space group is C_1h.


 Subroutine INISYM returns: Found  2 space group operations
 (whereof  1 operations are pure point group operations),
 and found     2 'primitive' translations

 
 
 KPOINTS: Automatic mesh                          

Automatic generation of k-mesh.
Space group operators:
 irot       det(A)        alpha          n_x          n_y          n_z        tau_x        tau_y        tau_z
    1     1.000000     0.000000     1.000000     0.000000     0.000000     0.000000     0.000000     0.000000
    2    -1.000000   180.000000     0.000000     1.000000     0.000000    -1.000001    -0.000001    -0.500001
 
 Subroutine IBZKPT returns following result:
 ===========================================
 
 Found      8 irreducible k-points:
 
 Following reciprocal coordinates:
            Coordinates               Weight
  0.250000  0.125000  0.125000      4.000000
 -0.250000  0.125000  0.125000      4.000000
  0.250000  0.375000  0.125000      4.000000
 -0.250000  0.375000  0.125000      4.000000
  0.250000  0.125000  0.375000      4.000000
 -0.250000  0.125000  0.375000      4.000000
  0.250000  0.375000  0.375000      4.000000
 -0.250000  0.375000  0.375000      4.000000
 
 Following cartesian coordinates:
            Coordinates               Weight
  0.017688  0.015162  0.027589      4.000000
 -0.017735  0.015162  0.006233      4.000000
  0.017688  0.045486  0.027589      4.000000
 -0.017735  0.045486  0.006233      4.000000
  0.017640  0.015162  0.061410      4.000000
 -0.017783  0.015162  0.040055      4.000000
  0.017640  0.045486  0.061410      4.000000
 -0.017783  0.045486  0.040055      4.000000
 
 
 Subroutine IBZKPT_HF returns following result:
 ==============================================
 
 Found     32 k-points in 1st BZ
 the following     32 k-points will be used (e.g. in the exchange kernel)
 Following reciprocal coordinates:   # in IRBZ
  0.250000  0.125000  0.125000    0.03125000   1 t-inv F
 -0.250000  0.125000  0.125000    0.03125000   2 t-inv F
  0.250000  0.375000  0.125000    0.03125000   3 t-inv F
 -0.250000  0.375000  0.125000    0.03125000   4 t-inv F
  0.250000  0.125000  0.375000    0.03125000   5 t-inv F
 -0.250000  0.125000  0.375000    0.03125000   6 t-inv F
  0.250000  0.375000  0.375000    0.03125000   7 t-inv F
 -0.250000  0.375000  0.375000    0.03125000   8 t-inv F
  0.250000 -0.125000  0.125000    0.03125000   1 t-inv F spinflp
 -0.250000 -0.125000  0.125000    0.03125000   2 t-inv F spinflp
  0.250000 -0.375000  0.125000    0.03125000   3 t-inv F spinflp
 -0.250000 -0.375000  0.125000    0.03125000   4 t-inv F spinflp
  0.250000 -0.125000  0.375000    0.03125000   5 t-inv F spinflp
 -0.250000 -0.125000  0.375000    0.03125000   6 t-inv F spinflp
  0.250000 -0.375000  0.375000    0.03125000   7 t-inv F spinflp
 -0.250000 -0.375000  0.375000    0.03125000   8 t-inv F spinflp
 -0.250000 -0.125000 -0.125000    0.03125000   1 t-inv T
 -0.250000  0.125000 -0.125000    0.03125000   1 t-inv T spinflp
  0.250000 -0.125000 -0.125000    0.03125000   2 t-inv T
  0.250000  0.125000 -0.125000    0.03125000   2 t-inv T spinflp
 -0.250000 -0.375000 -0.125000    0.03125000   3 t-inv T
 -0.250000  0.375000 -0.125000    0.03125000   3 t-inv T spinflp
  0.250000 -0.375000 -0.125000    0.03125000   4 t-inv T
  0.250000  0.375000 -0.125000    0.03125000   4 t-inv T spinflp
 -0.250000 -0.125000 -0.375000    0.03125000   5 t-inv T
 -0.250000  0.125000 -0.375000    0.03125000   5 t-inv T spinflp
  0.250000 -0.125000 -0.375000    0.03125000   6 t-inv T
  0.250000  0.125000 -0.375000    0.03125000   6 t-inv T spinflp
 -0.250000 -0.375000 -0.375000    0.03125000   7 t-inv T
 -0.250000  0.375000 -0.375000    0.03125000   7 t-inv T spinflp
  0.250000 -0.375000 -0.375000    0.03125000   8 t-inv T
  0.250000  0.375000 -0.375000    0.03125000   8 t-inv T spinflp


--------------------------------------------------------------------------------------------------------




 Dimension of arrays:
   k-points           NKPTS =      8   k-points in BZ     NKDIM =      8   number of bands    NBANDS=    240
   number of dos      NEDOS =   6000   number of ions     NIONS =     96
   non local maximal  LDIM  =      6   non local SUM 2l+1 LMDIM =     18
   total plane-waves  NPLWV = 725760
   max r-space proj   IRMAX =      1   max aug-charges    IRDMAX=   8657
   dimension x,y,z NGX =   126 NGY =   72 NGZ =   80
   dimension x,y,z NGXF=   160 NGYF=   96 NGZF=   96
   support grid    NGXF=   160 NGYF=   96 NGZF=   96
   ions per type =               4  24  20  44   4
   NGX,Y,Z   is equivalent  to a cutoff of  14.85, 14.52, 15.42 a.u.
   NGXF,Y,Z  is equivalent  to a cutoff of  18.86, 19.36, 18.51 a.u.

 SYSTEM =  Co-MOF                                  
 POSCAR =  C3 H8 Co N2 O6                          

 Startparameter for this run:
   NWRITE =      2    write-flag & timer
   PREC   = high      normal or accurate (medium, high low for compatibility)
   ISTART =      0    job   : 0-new  1-cont  2-samecut
   ICHARG =      1    charge: 1-file 2-atom 10-const
   ISPIN  =      2    spin polarized calculation?
   LNONCOLLINEAR =      F non collinear calculations
   LSORBIT =      F    spin-orbit coupling
   INIWAV =      1    electr: 0-lowe 1-rand  2-diag
   LASPH  =      F    aspherical Exc in radial PAW
   METAGGA=      F    non-selfconsistent MetaGGA calc.

 Electronic Relaxation 1
   ENCUT  =  700.0 eV  51.45 Ry    7.17 a.u.  30.42 17.79 18.60*2*pi/ulx,y,z
   ENINI  =  700.0     initial cutoff
   ENAUG  =  644.9 eV  augmentation charge cutoff
   NELM   =   2000;   NELMIN=  2; NELMDL= -3     # of ELM steps 
   EDIFF  = 0.1E-05   stopping-criterion for ELM
   LREAL  =      F    real-space projection
   NLSPLINE    = F    spline interpolate recip. space projectors
   LCOMPAT=      F    compatible to vasp.4.4
   GGA_COMPAT  = T    GGA compatible to vasp.4.4-vasp.4.6
   LMAXPAW     = -100 max onsite density
   LMAXMIX     =    4 max onsite mixed and CHGCAR
   VOSKOWN=      0    Vosko Wilk Nusair interpolation
   ROPT   =    0.00000   0.00000   0.00000   0.00000
   ROPT   =    0.00000
 Ionic relaxation
   EDIFFG = 0.1E-04   stopping-criterion for IOM
   NSW    =      0    number of steps for IOM
   NBLOCK =      1;   KBLOCK =      1    inner block; outer block 
   IBRION =     -1    ionic relax: 0-MD 1-quasi-New 2-CG
   NFREE  =      0    steps in history (QN), initial steepest desc. (CG)
   ISIF   =      2    stress and relaxation
   IWAVPR =     10    prediction:  0-non 1-charg 2-wave 3-comb
   ISYM   =      2    0-nonsym 1-usesym 2-fastsym
   LCORR  =      T    Harris-Foulkes like correction to forces

   POTIM  = 0.5000    time-step for ionic-motion
   TEIN   =    0.0    initial temperature
   TEBEG  =    0.0;   TEEND  =   0.0 temperature during run
   SMASS  =  -3.00    Nose mass-parameter (am)
   estimated Nose-frequenzy (Omega)   =  0.10E-29 period in steps =****** mass=  -0.455E-26a.u.
   SCALEE = 1.0000    scale energy and forces
   NPACO  =    256;   APACO  = 16.0  distance and # of slots for P.C.
   PSTRESS=    0.0 pullay stress

  Mass of Ions in am
   POMASS =  58.93 16.00 12.01  1.00 14.00
  Ionic Valenz
   ZVAL   =   9.00  6.00  4.00  1.00  5.00
  Atomic Wigner-Seitz radii
   RWIGS  =  -1.00 -1.00 -1.00 -1.00 -1.00
  virtual crystal weights 
   VCA    =   1.00  1.00  1.00  1.00  1.00
   NELECT =     324.0000    total number of electrons
   NUPDOWN=      -1.0000    fix difference up-down

 DOS related values:
   EMIN   =  10.00;   EMAX   =-10.00  energy-range for DOS
   EFERMI =   0.00
   ISMEAR =     0;   SIGMA  =   0.10  broadening in eV -4-tet -1-fermi 0-gaus

 Electronic relaxation 2 (details)
   IALGO  =     38    algorithm
   LDIAG  =      T    sub-space diagonalisation (order eigenvalues)
   LSUBROT=      F    optimize rotation matrix (better conditioning)
   TURBO    =      0    0=normal 1=particle mesh
   IRESTART =      0    0=no restart 2=restart with 2 vectors
   NREBOOT  =      0    no. of reboots
   NMIN     =      0    reboot dimension
   EREF     =   0.00    reference energy to select bands
   IMIX   =      4    mixing-type and parameters
     AMIX     =   0.40;   BMIX     =  1.00
     AMIX_MAG =   1.60;   BMIX_MAG =  1.00
     AMIN     =   0.10
     WC   =   100.;   INIMIX=   1;  MIXPRE=   1;  MAXMIX= -45

 Intra band minimization:
   WEIMIN = 0.0000     energy-eigenvalue tresh-hold
   EBREAK =  0.10E-08  absolut break condition
   DEPER  =   0.30     relativ break condition  

   TIME   =   0.40     timestep for ELM

  volume/ion in A,a.u.               =       8.95        60.41
  Fermi-wavevector in a.u.,A,eV,Ry     =   1.182640  2.234866 19.029618  1.398637
  Thomas-Fermi vector in A             =   2.318890
 
 Write flags
   LWAVE        =      F    write WAVECAR
   LDOWNSAMPLE  =      F    k-point downsampling of WAVECAR
   LCHARG       =      F    write CHGCAR
   LVTOT        =      F    write LOCPOT, total local potential
   LVHAR        =      F    write LOCPOT, Hartree potential only
   LELF         =      F    write electronic localiz. function (ELF)
   LORBIT       =     10    0 simple, 1 ext, 2 COOP (PROOUT), +10 PAW based schemes


 Dipole corrections
   LMONO  =      F    monopole corrections only (constant potential shift)
   LDIPOL =      F    correct potential (dipole corrections)
   IDIPOL =      0    1-x, 2-y, 3-z, 4-all directions 
   EPSILON=  1.0000000 bulk dielectric constant

 LDA+U is selected, type is set to LDAUTYPE =  2
   angular momentum for each species LDAUL =     2   -1   -1   -1   -1
   U (eV)           for each species LDAUU =   5.0  0.0  0.0  0.0  0.0
   J (eV)           for each species LDAUJ =   0.5  0.0  0.0  0.0  0.0
 Exchange correlation treatment:
   GGA     =    --    GGA type
   LEXCH   =     8    internal setting for exchange type
   VOSKOWN=      0    Vosko Wilk Nusair interpolation
   LHFCALC =     F    Hartree Fock is set to
   LHFONE  =     F    Hartree Fock one center treatment
   AEXX    =    0.0000 exact exchange contribution

 Linear response parameters
   LEPSILON=     F    determine dielectric tensor
   LRPA    =     F    only Hartree local field effects (RPA)
   LNABLA  =     F    use nabla operator in PAW spheres
   LVEL    =     F    velocity operator in full k-point grid
   LINTERFAST=   F  fast interpolation
   KINTER  =     0    interpolate to denser k-point grid
   CSHIFT  =0.1000    complex shift for real part using Kramers Kronig
   OMEGAMAX=  -1.0    maximum frequency
   DEG_THRESHOLD= 0.2000000E-02 threshold for treating states as degnerate
   RTIME   =   -0.100 relaxation time in fs
  (WPLASMAI=    0.000 imaginary part of plasma frequency in eV, 0.658/RTIME)
   DFIELD  = 0.0000000 0.0000000 0.0000000 field for delta impulse in time
 
 Orbital magnetization related:
   ORBITALMAG=     F  switch on orbital magnetization
   LCHIMAG   =     F  perturbation theory with respect to B field
   DQ        =  0.001000  dq finite difference perturbation B field
   LLRAUG    =     F  two centre corrections for induced B field

 PEAD related settings:
   LPEAD      =     T    switch on PEAD
   IPEAD      =     4    finite difference order for dpsi/dk
   LCALCPOL   =     T    calculate macroscopic polarization
   LCALCEPS   =     F    calculate dielectric tensor
   EFIELD_PEAD=    0.0000    0.0000    0.0000
   SKIP_EDOTP =     F
   LRPA       =     F
   SKIP_SCF   =     F


--------------------------------------------------------------------------------------------------------


 Static calculation
 charge density and potential will be updated during run
 spin polarized calculation
 Variant of blocked Davidson
 Davidson routine will perform the subspace rotation
 perform sub-space diagonalisation
    after iterative eigenvector-optimisation
 modified Broyden-mixing scheme, WC =      100.0
 initial mixing is a Kerker type mixing with AMIX =  0.4000 and BMIX =      1.0000
 Hartree-type preconditioning will be used
 using additional bands           78
 reciprocal scheme for non local part
 use partial core corrections
 calculate Harris-corrections to forces 
   (improved forces if not selfconsistent)
 use gradient corrections 
 use of overlap-Matrix (Vanderbilt PP)
 Gauss-broadening in eV      SIGMA  =   0.10


--------------------------------------------------------------------------------------------------------


  energy-cutoff  :      700.00
  volume of cell :      859.43
      direct lattice vectors                 reciprocal lattice vectors
    14.103053279  0.000000000  0.019935932     0.070846256  0.000000000  0.042710997
     0.000000000  8.244267198  0.000000000     0.000000000  0.121296408  0.000000000
    -4.452453823  0.000000000  7.385444124    -0.000191239  0.000000000  0.135286179

  length of vectors
    14.103067369  8.244267198  8.623753821     0.082724973  0.121296408  0.135286314


 
 k-points in units of 2pi/SCALE and weight: Automatic mesh                          
   0.01768766  0.01516205  0.02758852       0.125
  -0.01773547  0.01516205  0.00623302       0.125
   0.01768766  0.04548615  0.02758852       0.125
  -0.01773547  0.04548615  0.00623302       0.125
   0.01763985  0.01516205  0.06141007       0.125
  -0.01778328  0.01516205  0.04005457       0.125
   0.01763985  0.04548615  0.06141007       0.125
  -0.01778328  0.04548615  0.04005457       0.125
 
 k-points in reciprocal lattice and weights: Automatic mesh                          
   0.25000000  0.12500000  0.12500000       0.125
  -0.25000000  0.12500000  0.12500000       0.125
   0.25000000  0.37500000  0.12500000       0.125
  -0.25000000  0.37500000  0.12500000       0.125
   0.25000000  0.12500000  0.37500000       0.125
  -0.25000000  0.12500000  0.37500000       0.125
   0.25000000  0.37500000  0.37500000       0.125
  -0.25000000  0.37500000  0.37500000       0.125
 
 position of ions in fractional coordinates (direct lattice) 
   0.99988320  0.25274061  0.00101907
   0.99988315  0.74725938  0.50101893
   0.49988326  0.75274047  0.00101900
   0.49988328  0.24725954  0.50101915
   0.15616911  0.14280010  0.16146297
   0.15616898  0.85720025  0.66146228
   0.65616910  0.64279961  0.16146231
   0.65616922  0.35720002  0.66146298
   0.04936663  0.52382362  0.63620985
   0.04936612  0.47617699  0.13620899
   0.54936580  0.02382255  0.63620999
   0.54936629  0.97617688  0.13621083
   0.04836844  0.33287106  0.82066273
   0.04836857  0.66712984  0.32066260
   0.54836846  0.83286988  0.82066260
   0.54836833  0.16712923  0.32066278
   0.94265188  0.96769068  0.35379124
   0.94265216  0.03230921  0.85379026
   0.44265195  0.46769071  0.35379013
   0.44265167  0.53230939  0.85379100
   0.94657276  0.16310798  0.17702815
   0.94657302  0.83689362  0.67702862
   0.44657296  0.66310620  0.17702835
   0.44657267  0.33689220  0.67702799
   0.34011987  0.13904671  0.33867292
   0.34011995  0.86095410  0.83867255
   0.84011965  0.63904606  0.33867241
   0.84011954  0.36095315  0.83867286
   0.69305265  0.27812037  0.09242489
   0.69305306  0.72187898  0.59242497
   0.19305236  0.77812170  0.09242583
   0.19305198  0.22187896  0.59242575
   0.24818941  0.21446944  0.24993273
   0.24818894  0.78553062  0.74993180
   0.74818888  0.71446850  0.24993135
   0.74818938  0.28553142  0.74993232
   0.03399861  0.47733142  0.76171844
   0.03399827  0.52266726  0.26171615
   0.53399896  0.97733378  0.76171538
   0.53399933  0.02266749  0.26171763
   0.97710599  0.02526029  0.25604214
   0.97710483  0.97473894  0.75604259
   0.47710518  0.52526146  0.25604282
   0.47710631  0.47473930  0.75604229
   0.80473357  0.23634740  0.42313029
   0.80473376  0.76365302  0.92313023
   0.30473474  0.73634622  0.42313077
   0.30473453  0.26365333  0.92313084
   0.68463234  0.14779660  0.06463540
   0.68463297  0.85220259  0.56463541
   0.18463297  0.64779696  0.06463526
   0.18463236  0.35220387  0.56463528
   0.69174364  0.34504993  0.98203230
   0.69174440  0.65494911  0.48203280
   0.19174444  0.84505107  0.98203222
   0.19174365  0.15494988  0.48203171
   0.62531161  0.31886708  0.10956974
   0.62531209  0.68113232  0.60956973
   0.12531258  0.81886719  0.10956947
   0.12531213  0.18113340  0.60956954
   0.25057924  0.34877695  0.25196214
   0.25057924  0.65122382  0.75196186
   0.75057906  0.84877613  0.25196189
   0.75057907  0.15122310  0.75196218
   0.00702578  0.56829343  0.82566290
   0.00702541  0.43170706  0.32566171
   0.50702477  0.06829313  0.82566150
   0.50702521  0.93170632  0.32566274
   0.03663386  0.95436025  0.23644050
   0.03663424  0.04563920  0.73643909
   0.53663414  0.45436055  0.23643888
   0.53663372  0.54564002  0.73644027
   0.86256625  0.25744723  0.24369974
   0.86256664  0.74255224  0.74370017
   0.36256665  0.75744777  0.24370034
   0.36256620  0.24255276  0.74369991
   0.81436222  0.43381862  0.28398228
   0.81436258  0.56618089  0.78398323
   0.31436261  0.93381922  0.28398315
   0.31436217  0.06618126  0.78398215
   0.88491653  0.26444272  0.54274721
   0.88491653  0.73555773  0.04274755
   0.38491612  0.76444229  0.54274695
   0.38491610  0.23555726  0.04274668
   0.79496437  0.10481308  0.40596762
   0.79496495  0.89518749  0.90596694
   0.29496494  0.60481308  0.40596697
   0.29496435  0.39518634  0.90596767
   0.73700912  0.28696858  0.43481553
   0.73700899  0.71303283  0.93481514
   0.23700846  0.78696767  0.43481519
   0.23700864  0.21303092  0.93481559
   0.80004220  0.30795635  0.26159309
   0.80004252  0.69204318  0.76159371
   0.30004252  0.80795680  0.26159331
   0.30004221  0.19204368  0.76159270
 
 position of ions in cartesian coordinates  (Angst):
  14.09686869  2.08366113  0.02745990
  11.87064170  6.16060602  3.72018094
   7.04534314  6.20579354  0.01749144
   4.81911589  2.03847371  3.71021460
   1.48355481  1.17728214  1.19558913
  -0.74267073  7.06698793  4.88830606
   8.53508431  5.29941176  1.20555218
   6.30885609  2.94485245  4.89827925
  -2.13647480  4.31854187  4.69967644
   0.08974874  3.92573034  1.00694807
   4.91503952  0.19639951  4.70964543
   7.14126969  8.04786305  1.01692959
  -2.97182022  2.74427794  6.06192302
  -0.74559083  5.49999665  2.36919998
   4.07970724  6.86640185  6.07188999
   6.30593161  1.37785807  2.37916928
  11.71903048  7.97790051  2.63169810
   9.49281191  0.26636575  6.32441292
   4.66750977  3.85576720  2.62172194
   2.44127505  4.38850085  6.31445042
  12.56135639  1.34470576  1.32630236
  10.33513109  6.89957463  5.01902787
   5.50983167  5.46682469  1.31633587
   3.28360228  2.77742932  5.00905526
   3.28880317  1.14633820  2.50803050
   1.06257899  7.09793564  6.20074983
  10.34032891  5.26846645  2.51799476
   8.11409840  2.97579422  6.21072010
   9.36264091  2.29289863  0.69641551
   7.13641940  5.95136321  4.38913815
   2.31110603  6.41504320  0.68645449
   0.08487402  1.82922947  4.37917595
   2.38741457  1.76814335  1.85081208
   0.16118510  6.47612434  5.54352729
   9.43893992  5.89026924  1.86076983
   7.21271563  2.35399735  5.55349907
  -2.91203202  3.93524780  5.62630680
  -0.68579969  4.30900853  1.93356778
   4.13951329  8.05740085  5.63625214
   6.36573530  0.18687682  1.94354671
  12.64016196  0.20825259  1.91046444
  10.41391680  8.03600826  5.60318982
   5.58862090  4.33039586  1.90050149
   3.36241230  3.91387760  5.59321964
   9.46523227  1.94851109  3.14104825
   7.23900834  6.29575954  6.83376988
   2.41372000  6.07063502  3.13108382
   0.18748994  2.17362852  6.82380640
   9.36762029  1.21847463  0.49100993
   7.14140210  7.02578582  4.18373209
   2.31610313  5.34061122  0.48104096
   0.08986755  2.90366283  4.17376313
   5.38324398  2.84468380  7.26653527
   7.60947930  5.39957546  3.57381690
  -1.66827107  6.96682678  7.25656667
   0.55794703  1.27744824  3.56384084
   8.33094871  2.62882544  0.82168734
   6.10472862  5.61543688  4.51440935
   1.27943700  6.75095991  0.81171741
  -0.94679655  1.49331217  4.50443997
   2.41208263  2.87541035  1.86584786
   0.18585695  5.36886318  5.55856786
   9.46360784  6.99753722  1.87581398
   7.23737978  1.24672364  5.56853819
  -3.57714098  4.68516290  6.09802730
  -1.35091408  3.55910836  2.40529645
   3.47437767  0.56302682  6.10798488
   5.70060522  7.68123582  2.41527199
  -0.53609112  7.86800092  1.74694842
  -2.76230644  0.37626178  5.43966011
   6.51544663  3.74586976  1.75690442
   4.28920773  4.49840212  5.44963673
  11.07975595  2.12246378  1.81702688
   8.85353265  6.12179906  5.50975215
   4.02823224  6.24460179  1.80706332
   1.80200084  1.99966977  5.49978226
  10.22057581  3.57651661  2.11357031
   7.99434977  4.66774650  5.80629940
   3.16905080  7.69865518  2.10360878
   0.94282216  0.54561598  5.79632345
  10.06346812  2.18013646  4.02607084
  12.28969351  6.06413445  0.33335129
   3.01193675  6.30226650  4.01610095
   5.23816464  1.94199699  0.32337690
   9.40387275  0.86410703  3.01409956
   7.17765710  7.38016483  6.70681655
   2.35235710  4.98624064  3.00412678
   0.12611876  3.25802177  6.69685400
   8.45808280  2.36584563  3.22599876
   6.23185583  5.87843316  6.91871797
   1.40654835  6.48797178  3.21602831
  -0.81967775  1.75628383  6.90875332
  10.11830662  2.53887445  1.94793071
   7.89208143  5.70538890  5.64065740
   3.06678354  6.66101173  1.93796444
   0.84055498  1.58325944  5.63068196
 


--------------------------------------------------------------------------------------------------------


 k-point  1 :   0.2500 0.1250 0.1250  plane waves:   36151
 k-point  2 :  -0.2500 0.1250 0.1250  plane waves:   36128
 k-point  3 :   0.2500 0.3750 0.1250  plane waves:   36165
 k-point  4 :  -0.2500 0.3750 0.1250  plane waves:   36174
 k-point  5 :   0.2500 0.1250 0.3750  plane waves:   36142
 k-point  6 :  -0.2500 0.1250 0.3750  plane waves:   36125
 k-point  7 :   0.2500 0.3750 0.3750  plane waves:   36146
 k-point  8 :  -0.2500 0.3750 0.3750  plane waves:   36143

 maximum and minimum number of plane-waves per node :     36174    36125

 maximum number of plane-waves:     36174
 maximum index in each direction: 
   IXMAX=   30   IYMAX=   17   IZMAX=   18
   IXMIN=  -30   IYMIN=  -18   IZMIN=  -18


 serial   3D FFT for wavefunctions
 parallel 3D FFT for charge:
    minimum data exchange during FFTs selected (reduces bandwidth)


 total amount of memory used by VASP MPI-rank0   400075. kBytes
=======================================================================

   base      :      30000. kBytes
   nonl-proj :     263969. kBytes
   fftplans  :       4059. kBytes
   grid      :      61277. kBytes
   one-center:       2985. kBytes
   wavefun   :      37785. kBytes
 
     INWAV:  cpu time    0.0000: real time    0.0000
 Broyden mixing: mesh for mixing (old mesh)
   NGX = 61   NGY = 35   NGZ = 37
  (NGX  =160   NGY  = 96   NGZ  = 96)
  gives a total of  78995 points

 initial charge density was supplied:
 charge density of overlapping atoms calculated
 number of electron     324.0000000 magnetization      -0.0000000
 keeping initial charge density in first step


--------------------------------------------------------------------------------------------------------


 Maximum index for augmentation-charges          445 (set IRDMAX)


--------------------------------------------------------------------------------------------------------


 First call to EWALD:  gamma=   0.186
 Maximum number of real-space cells 2x 3x 3
 Maximum number of reciprocal cells 4x 2x 3

    FEWALD:  cpu time    0.0032: real time    0.0032


--------------------------------------- Iteration      1(   1)  ---------------------------------------


    POTLOK:  cpu time    0.1082: real time    0.1340
    SETDIJ:  cpu time    0.0128: real time    0.0162
atom =   1  type =  1  l = 2
 
 onsite density matrix
 
spin component  1
 
  0.4933  0.0000  0.0000  0.0000  0.0000
  0.0000  0.4933  0.0000  0.0000  0.0000
  0.0000  0.0000  0.4933  0.0000  0.0000
  0.0000  0.0000  0.0000  0.4933  0.0000
  0.0000  0.0000  0.0000  0.0000  0.4933
 
spin component  2
 
  0.9865  0.0000  0.0000  0.0000  0.0000
  0.0000  0.9865  0.0000  0.0000  0.0000
  0.0000  0.0000  0.9865  0.0000  0.0000
  0.0000  0.0000  0.0000  0.9865  0.0000
  0.0000  0.0000  0.0000  0.0000  0.9865
 
 occupancies and eigenvectors
 
  o =  0.4933  v =  1.0000  0.0000  0.0000  0.0000  0.0000  0.0000  0.0000  0.0000  0.0000  0.0000      0.0000  0.0000  0.0000  0.0000  0.0000  0.0000  0.0000  0.0000  0.0000  0.0000
  o =  0.4933  v =  0.0000  1.0000  0.0000  0.0000  0.0000  0.0000  0.0000  0.0000  0.0000  0.0000      0.0000  0.0000  0.0000  0.0000  0.0000  0.0000  0.0000  0.0000  0.0000  0.0000
  o =  0.4933  v =  0.0000  0.0000  1.0000  0.0000  0.0000  0.0000  0.0000  0.0000  0.0000  0.0000      0.0000  0.0000  0.0000  0.0000  0.0000  0.0000  0.0000  0.0000  0.0000  0.0000
  o =  0.4933  v =  0.0000  0.0000  0.0000  1.0000  0.0000  0.0000  0.0000  0.0000  0.0000  0.0000      0.0000  0.0000  0.0000  0.0000  0.0000  0.0000  0.0000  0.0000  0.0000  0.0000
  o =  0.4933  v =  0.0000  0.0000  0.0000  0.0000  1.0000  0.0000  0.0000  0.0000  0.0000  0.0000      0.0000  0.0000  0.0000  0.0000  0.0000  0.0000  0.0000  0.0000  0.0000  0.0000
  o =  0.9865  v =  0.0000  0.0000  0.0000  0.0000  0.0000  1.0000  0.0000  0.0000  0.0000  0.0000      0.0000  0.0000  0.0000  0.0000  0.0000  0.0000  0.0000  0.0000  0.0000  0.0000
  o =  0.9865  v =  0.0000  0.0000  0.0000  0.0000  0.0000  0.0000  1.0000  0.0000  0.0000  0.0000      0.0000  0.0000  0.0000  0.0000  0.0000  0.0000  0.0000  0.0000  0.0000  0.0000
  o =  0.9865  v =  0.0000  0.0000  0.0000  0.0000  0.0000  0.0000  0.0000  1.0000  0.0000  0.0000      0.0000  0.0000  0.0000  0.0000  0.0000  0.0000  0.0000  0.0000  0.0000  0.0000
  o =  0.9865  v =  0.0000  0.0000  0.0000  0.0000  0.0000  0.0000  0.0000  0.0000  1.0000  0.0000      0.0000  0.0000  0.0000  0.0000  0.0000  0.0000  0.0000  0.0000  0.0000  0.0000
  o =  0.9865  v =  0.0000  0.0000  0.0000  0.0000  0.0000  0.0000  0.0000  0.0000  0.0000  1.0000      0.0000  0.0000  0.0000  0.0000  0.0000  0.0000  0.0000  0.0000  0.0000  0.0000
atom =   2  type =  1  l = 2
 
 onsite density matrix
 
spin component  1
 
  0.9865  0.0000  0.0000  0.0000  0.0000
  0.0000  0.9865  0.0000  0.0000  0.0000
  0.0000  0.0000  0.9865  0.0000  0.0000
  0.0000  0.0000  0.0000  0.9865  0.0000
  0.0000  0.0000  0.0000  0.0000  0.9865
 
spin component  2
 
  0.4933  0.0000  0.0000  0.0000  0.0000
  0.0000  0.4933  0.0000  0.0000  0.0000
  0.0000  0.0000  0.4933  0.0000  0.0000
  0.0000  0.0000  0.0000  0.4933  0.0000
  0.0000  0.0000  0.0000  0.0000  0.4933
 
 occupancies and eigenvectors
 
  o =  0.4933  v =  0.0000  0.0000  0.0000  0.0000  0.0000  1.0000  0.0000  0.0000  0.0000  0.0000      0.0000  0.0000  0.0000  0.0000  0.0000  0.0000  0.0000  0.0000  0.0000  0.0000
  o =  0.4933  v =  0.0000  0.0000  0.0000  0.0000  0.0000  0.0000  1.0000  0.0000  0.0000  0.0000      0.0000  0.0000  0.0000  0.0000  0.0000  0.0000  0.0000  0.0000  0.0000  0.0000
  o =  0.4933  v =  0.0000  0.0000  0.0000  0.0000  0.0000  0.0000  0.0000  1.0000  0.0000  0.0000      0.0000  0.0000  0.0000  0.0000  0.0000  0.0000  0.0000  0.0000  0.0000  0.0000
  o =  0.4933  v =  0.0000  0.0000  0.0000  0.0000  0.0000  0.0000  0.0000  0.0000  1.0000  0.0000      0.0000  0.0000  0.0000  0.0000  0.0000  0.0000  0.0000  0.0000  0.0000  0.0000
  o =  0.4933  v =  0.0000  0.0000  0.0000  0.0000  0.0000  0.0000  0.0000  0.0000  0.0000  1.0000      0.0000  0.0000  0.0000  0.0000  0.0000  0.0000  0.0000  0.0000  0.0000  0.0000
  o =  0.9865  v =  1.0000  0.0000  0.0000  0.0000  0.0000  0.0000  0.0000  0.0000  0.0000  0.0000      0.0000  0.0000  0.0000  0.0000  0.0000  0.0000  0.0000  0.0000  0.0000  0.0000
  o =  0.9865  v =  0.0000  1.0000  0.0000  0.0000  0.0000  0.0000  0.0000  0.0000  0.0000  0.0000      0.0000  0.0000  0.0000  0.0000  0.0000  0.0000  0.0000  0.0000  0.0000  0.0000
  o =  0.9865  v =  0.0000  0.0000  1.0000  0.0000  0.0000  0.0000  0.0000  0.0000  0.0000  0.0000      0.0000  0.0000  0.0000  0.0000  0.0000  0.0000  0.0000  0.0000  0.0000  0.0000
  o =  0.9865  v =  0.0000  0.0000  0.0000  1.0000  0.0000  0.0000  0.0000  0.0000  0.0000  0.0000      0.0000  0.0000  0.0000  0.0000  0.0000  0.0000  0.0000  0.0000  0.0000  0.0000
  o =  0.9865  v =  0.0000  0.0000  0.0000  0.0000  1.0000  0.0000  0.0000  0.0000  0.0000  0.0000      0.0000  0.0000  0.0000  0.0000  0.0000  0.0000  0.0000  0.0000  0.0000  0.0000
atom =   3  type =  1  l = 2
 
 onsite density matrix
 
spin component  1
 
  0.4933  0.0000  0.0000  0.0000  0.0000
  0.0000  0.4933  0.0000  0.0000  0.0000
  0.0000  0.0000  0.4933  0.0000  0.0000
  0.0000  0.0000  0.0000  0.4933  0.0000
  0.0000  0.0000  0.0000  0.0000  0.4933
 
spin component  2
 
  0.9865  0.0000  0.0000  0.0000  0.0000
  0.0000  0.9865  0.0000  0.0000  0.0000
  0.0000  0.0000  0.9865  0.0000  0.0000
  0.0000  0.0000  0.0000  0.9865  0.0000
  0.0000  0.0000  0.0000  0.0000  0.9865
 
 occupancies and eigenvectors
 
  o =  0.4933  v =  1.0000  0.0000  0.0000  0.0000  0.0000  0.0000  0.0000  0.0000  0.0000  0.0000      0.0000  0.0000  0.0000  0.0000  0.0000  0.0000  0.0000  0.0000  0.0000  0.0000
  o =  0.4933  v =  0.0000  1.0000  0.0000  0.0000  0.0000  0.0000  0.0000  0.0000  0.0000  0.0000      0.0000  0.0000  0.0000  0.0000  0.0000  0.0000  0.0000  0.0000  0.0000  0.0000
  o =  0.4933  v =  0.0000  0.0000  1.0000  0.0000  0.0000  0.0000  0.0000  0.0000  0.0000  0.0000      0.0000  0.0000  0.0000  0.0000  0.0000  0.0000  0.0000  0.0000  0.0000  0.0000
  o =  0.4933  v =  0.0000  0.0000  0.0000  1.0000  0.0000  0.0000  0.0000  0.0000  0.0000  0.0000      0.0000  0.0000  0.0000  0.0000  0.0000  0.0000  0.0000  0.0000  0.0000  0.0000
  o =  0.4933  v =  0.0000  0.0000  0.0000  0.0000  1.0000  0.0000  0.0000  0.0000  0.0000  0.0000      0.0000  0.0000  0.0000  0.0000  0.0000  0.0000  0.0000  0.0000  0.0000  0.0000
  o =  0.9865  v =  0.0000  0.0000  0.0000  0.0000  0.0000  1.0000  0.0000  0.0000  0.0000  0.0000      0.0000  0.0000  0.0000  0.0000  0.0000  0.0000  0.0000  0.0000  0.0000  0.0000
  o =  0.9865  v =  0.0000  0.0000  0.0000  0.0000  0.0000  0.0000  1.0000  0.0000  0.0000  0.0000      0.0000  0.0000  0.0000  0.0000  0.0000  0.0000  0.0000  0.0000  0.0000  0.0000
  o =  0.9865  v =  0.0000  0.0000  0.0000  0.0000  0.0000  0.0000  0.0000  1.0000  0.0000  0.0000      0.0000  0.0000  0.0000  0.0000  0.0000  0.0000  0.0000  0.0000  0.0000  0.0000
  o =  0.9865  v =  0.0000  0.0000  0.0000  0.0000  0.0000  0.0000  0.0000  0.0000  1.0000  0.0000      0.0000  0.0000  0.0000  0.0000  0.0000  0.0000  0.0000  0.0000  0.0000  0.0000
  o =  0.9865  v =  0.0000  0.0000  0.0000  0.0000  0.0000  0.0000  0.0000  0.0000  0.0000  1.0000      0.0000  0.0000  0.0000  0.0000  0.0000  0.0000  0.0000  0.0000  0.0000  0.0000
atom =   4  type =  1  l = 2
 
 onsite density matrix
 
spin component  1
 
  0.9865  0.0000  0.0000  0.0000  0.0000
  0.0000  0.9865  0.0000  0.0000  0.0000
  0.0000  0.0000  0.9865  0.0000  0.0000
  0.0000  0.0000  0.0000  0.9865  0.0000
  0.0000  0.0000  0.0000  0.0000  0.9865
 
spin component  2
 
  0.4933  0.0000  0.0000  0.0000  0.0000
  0.0000  0.4933  0.0000  0.0000  0.0000
  0.0000  0.0000  0.4933  0.0000  0.0000
  0.0000  0.0000  0.0000  0.4933  0.0000
  0.0000  0.0000  0.0000  0.0000  0.4933
 
 occupancies and eigenvectors
 
  o =  0.4933  v =  0.0000  0.0000  0.0000  0.0000  0.0000  1.0000  0.0000  0.0000  0.0000  0.0000      0.0000  0.0000  0.0000  0.0000  0.0000  0.0000  0.0000  0.0000  0.0000  0.0000
  o =  0.4933  v =  0.0000  0.0000  0.0000  0.0000  0.0000  0.0000  1.0000  0.0000  0.0000  0.0000      0.0000  0.0000  0.0000  0.0000  0.0000  0.0000  0.0000  0.0000  0.0000  0.0000
  o =  0.4933  v =  0.0000  0.0000  0.0000  0.0000  0.0000  0.0000  0.0000  1.0000  0.0000  0.0000      0.0000  0.0000  0.0000  0.0000  0.0000  0.0000  0.0000  0.0000  0.0000  0.0000
  o =  0.4933  v =  0.0000  0.0000  0.0000  0.0000  0.0000  0.0000  0.0000  0.0000  1.0000  0.0000      0.0000  0.0000  0.0000  0.0000  0.0000  0.0000  0.0000  0.0000  0.0000  0.0000
  o =  0.4933  v =  0.0000  0.0000  0.0000  0.0000  0.0000  0.0000  0.0000  0.0000  0.0000  1.0000      0.0000  0.0000  0.0000  0.0000  0.0000  0.0000  0.0000  0.0000  0.0000  0.0000
  o =  0.9865  v =  1.0000  0.0000  0.0000  0.0000  0.0000  0.0000  0.0000  0.0000  0.0000  0.0000      0.0000  0.0000  0.0000  0.0000  0.0000  0.0000  0.0000  0.0000  0.0000  0.0000
  o =  0.9865  v =  0.0000  1.0000  0.0000  0.0000  0.0000  0.0000  0.0000  0.0000  0.0000  0.0000      0.0000  0.0000  0.0000  0.0000  0.0000  0.0000  0.0000  0.0000  0.0000  0.0000
  o =  0.9865  v =  0.0000  0.0000  1.0000  0.0000  0.0000  0.0000  0.0000  0.0000  0.0000  0.0000      0.0000  0.0000  0.0000  0.0000  0.0000  0.0000  0.0000  0.0000  0.0000  0.0000
  o =  0.9865  v =  0.0000  0.0000  0.0000  1.0000  0.0000  0.0000  0.0000  0.0000  0.0000  0.0000      0.0000  0.0000  0.0000  0.0000  0.0000  0.0000  0.0000  0.0000  0.0000  0.0000
  o =  0.9865  v =  0.0000  0.0000  0.0000  0.0000  1.0000  0.0000  0.0000  0.0000  0.0000  0.0000      0.0000  0.0000  0.0000  0.0000  0.0000  0.0000  0.0000  0.0000  0.0000  0.0000
     EDDAV:  cpu time   23.1280: real time   23.2138
       DOS:  cpu time    0.0034: real time    0.0044
    --------------------------------------------
      LOOP:  cpu time   23.2524: real time   23.3684

 eigenvalue-minimisations  :  7680
 total energy-change (2. order) : 0.2480792E+04  (-0.1853572E+05)
 number of electron     324.0000000 magnetization      -0.0000000
 augmentation part      324.0000000 magnetization      -0.0000000

 Free energy of the ion-electron system (eV)
  ---------------------------------------------------
  alpha Z        PSCENC =       586.03410638
  Ewald energy   TEWEN  =     -9670.27654238
  -Hartree energ DENC   =     -7520.86470434
  -exchange      EXHF   =         0.00000000
  -V(xc)+E(xc)   XCENC  =      1196.74631833
  PAW double counting   =      9676.09319572    -9906.31784684
  entropy T*S    EENTRO =        -0.06905913
  eigenvalues    EBANDS =       -62.35367468
  atomic energy  EATOM  =     18181.80053462
  Solvation  Ediel_sol  =         0.00000000
  ---------------------------------------------------
  free energy    TOTEN  =      2480.79232768 eV

  energy without entropy =     2480.86138681  energy(sigma->0) =     2480.82685725


--------------------------------------------------------------------------------------------------------




--------------------------------------- Iteration      1(   2)  ---------------------------------------


     EDDAV:  cpu time   24.7400: real time   24.8103
       DOS:  cpu time    0.0031: real time    0.0031
    --------------------------------------------
      LOOP:  cpu time   24.7431: real time   24.8134

 eigenvalue-minimisations  :  8640
 total energy-change (2. order) :-0.2803997E+04  (-0.2623848E+04)
 number of electron     324.0000000 magnetization      -0.0000000
 augmentation part      324.0000000 magnetization      -0.0000000

 Free energy of the ion-electron system (eV)
  ---------------------------------------------------
  alpha Z        PSCENC =       586.03410638
  Ewald energy   TEWEN  =     -9670.27654238
  -Hartree energ DENC   =     -7520.86470434
  -exchange      EXHF   =         0.00000000
  -V(xc)+E(xc)   XCENC  =      1196.74631833
  PAW double counting   =      9676.09319572    -9906.31784684
  entropy T*S    EENTRO =        -0.10493564
  eigenvalues    EBANDS =     -2866.31430104
  atomic energy  EATOM  =     18181.80053462
  Solvation  Ediel_sol  =         0.00000000
  ---------------------------------------------------
  free energy    TOTEN  =      -323.20417518 eV

  energy without entropy =     -323.09923955  energy(sigma->0) =     -323.15170736


--------------------------------------------------------------------------------------------------------




--------------------------------------- Iteration      1(   3)  ---------------------------------------


     EDDAV:  cpu time   27.1660: real time   27.2414
       DOS:  cpu time    0.0034: real time    0.0034
    CHARGE:  cpu time    0.8368: real time    0.8388
    MIXING:  cpu time    0.0013: real time    0.0021
    --------------------------------------------
      LOOP:  cpu time   28.0074: real time   28.0857

 eigenvalue-minimisations  :  9600
 total energy-change (2. order) :-0.2839259E+03  (-0.2801428E+03)
 number of electron     323.9999940 magnetization       0.0000000
 augmentation part       37.3271254 magnetization       0.0000000

 Broyden mixing:
  rms(total) = 0.60410E+01    rms(broyden)= 0.60408E+01
  rms(prec ) = 0.73798E+01
  weight for this iteration     100.00

 Free energy of the ion-electron system (eV)
  ---------------------------------------------------
  alpha Z        PSCENC =       586.03410638
  Ewald energy   TEWEN  =     -9670.27654238
  -Hartree energ DENC   =     -7520.86470434
  -exchange      EXHF   =         0.00000000
  -V(xc)+E(xc)   XCENC  =      1196.74631833
  PAW double counting   =      9676.09319572    -9906.31784684
  entropy T*S    EENTRO =        -0.26380792
  eigenvalues    EBANDS =     -3150.08129560
  atomic energy  EATOM  =     18181.80053462
  Solvation  Ediel_sol  =         0.00000000
  ---------------------------------------------------
  free energy    TOTEN  =      -607.13004202 eV

  energy without entropy =     -606.86623411  energy(sigma->0) =     -606.99813807


--------------------------------------------------------------------------------------------------------




--------------------------------------- Iteration      1(   4)  ---------------------------------------


    POTLOK:  cpu time    0.0623: real time    0.0724
    SETDIJ:  cpu time    0.0158: real time    0.0158
atom =   1  type =  1  l = 2
 
 onsite density matrix
 
spin component  1
 
  0.0657 -0.0054  0.0092  0.0032  0.0042
 -0.0054  0.0684 -0.0051  0.0024  0.0090
  0.0092 -0.0051  0.0674  0.0018 -0.0036
  0.0032  0.0024  0.0018  0.0642  0.0097
  0.0042  0.0090 -0.0036  0.0097  0.0816
 
spin component  2
 
  1.2259  0.0055 -0.0059 -0.0180 -0.0043
  0.0055  1.2353  0.0009 -0.0008 -0.0237
 -0.0059  0.0009  1.2114 -0.0023  0.0041
 -0.0180 -0.0008 -0.0023  1.2419 -0.0080
 -0.0043 -0.0237  0.0041 -0.0080  1.2180
 
 occupancies and eigenvectors
 
  o =  0.0552  v = -0.7083 -0.2854  0.5346 -0.1387  0.3345  0.0000  0.0000  0.0000  0.0000  0.0000      0.0000  0.0000  0.0000  0.0000  0.0000  0.0000  0.0000  0.0000  0.0000  0.0000
  o =  0.0595  v =  0.2946  0.2235  0.1171 -0.8841  0.2607  0.0000  0.0000  0.0000  0.0000  0.0000      0.0000  0.0000  0.0000  0.0000  0.0000  0.0000  0.0000  0.0000  0.0000  0.0000
  o =  0.0619  v =  0.0604 -0.7557 -0.5549 -0.1542  0.3059  0.0000  0.0000  0.0000  0.0000  0.0000      0.0000  0.0000  0.0000  0.0000  0.0000  0.0000  0.0000  0.0000  0.0000  0.0000
  o =  0.0800  v = -0.6381  0.3658 -0.5996 -0.2545 -0.1863  0.0000  0.0000  0.0000  0.0000  0.0000      0.0000  0.0000  0.0000  0.0000  0.0000  0.0000  0.0000  0.0000  0.0000  0.0000
  o =  0.0908  v =  0.0274  0.4046 -0.1819  0.3326  0.8318  0.0000  0.0000  0.0000  0.0000  0.0000      0.0000  0.0000  0.0000  0.0000  0.0000  0.0000  0.0000  0.0000  0.0000  0.0000
  o =  1.1991  v =  0.0000  0.0000  0.0000  0.0000  0.0000  0.0991  0.5173 -0.2193  0.1886  0.7993      0.0000  0.0000  0.0000  0.0000  0.0000  0.0000  0.0000  0.0000  0.0000  0.0000
  o =  1.2061  v =  0.0000  0.0000  0.0000  0.0000  0.0000  0.5729 -0.0541  0.7334  0.3525  0.0820      0.0000  0.0000  0.0000  0.0000  0.0000  0.0000  0.0000  0.0000  0.0000  0.0000
  o =  1.2193  v =  0.0000  0.0000  0.0000  0.0000  0.0000 -0.5889  0.3277  0.6394 -0.3505  0.1191      0.0000  0.0000  0.0000  0.0000  0.0000  0.0000  0.0000  0.0000  0.0000  0.0000
  o =  1.2535  v =  0.0000  0.0000  0.0000  0.0000  0.0000 -0.1278  0.6372 -0.0507  0.5356 -0.5369      0.0000  0.0000  0.0000  0.0000  0.0000  0.0000  0.0000  0.0000  0.0000  0.0000
  o =  1.2545  v =  0.0000  0.0000  0.0000  0.0000  0.0000  0.5466  0.4648 -0.0519 -0.6560 -0.2281      0.0000  0.0000  0.0000  0.0000  0.0000  0.0000  0.0000  0.0000  0.0000  0.0000
atom =   2  type =  1  l = 2
 
 onsite density matrix
 
spin component  1
 
  1.2259  0.0055  0.0059  0.0180  0.0043
  0.0055  1.2353 -0.0009  0.0008  0.0237
  0.0059 -0.0009  1.2114 -0.0023  0.0041
  0.0180  0.0008 -0.0023  1.2419 -0.0080
  0.0043  0.0237  0.0041 -0.0080  1.2180
 
spin component  2
 
  0.0657 -0.0054 -0.0092 -0.0032 -0.0042
 -0.0054  0.0684  0.0051 -0.0024 -0.0090
 -0.0092  0.0051  0.0674  0.0018 -0.0036
 -0.0032 -0.0024  0.0018  0.0642  0.0097
 -0.0042 -0.0090 -0.0036  0.0097  0.0816
 
 occupancies and eigenvectors
 
  o =  0.0552  v =  0.0000  0.0000  0.0000  0.0000  0.0000 -0.7083 -0.2854 -0.5346  0.1387 -0.3345      0.0000  0.0000  0.0000  0.0000  0.0000  0.0000  0.0000  0.0000  0.0000  0.0000
  o =  0.0595  v =  0.0000  0.0000  0.0000  0.0000  0.0000  0.2946  0.2235 -0.1171  0.8841 -0.2607      0.0000  0.0000  0.0000  0.0000  0.0000  0.0000  0.0000  0.0000  0.0000  0.0000
  o =  0.0619  v =  0.0000  0.0000  0.0000  0.0000  0.0000 -0.0604  0.7557 -0.5549 -0.1542  0.3059      0.0000  0.0000  0.0000  0.0000  0.0000  0.0000  0.0000  0.0000  0.0000  0.0000
  o =  0.0800  v =  0.0000  0.0000  0.0000  0.0000  0.0000 -0.6381  0.3658  0.5996  0.2545  0.1863      0.0000  0.0000  0.0000  0.0000  0.0000  0.0000  0.0000  0.0000  0.0000  0.0000
  o =  0.0908  v =  0.0000  0.0000  0.0000  0.0000  0.0000  0.0274  0.4046  0.1819 -0.3326 -0.8318      0.0000  0.0000  0.0000  0.0000  0.0000  0.0000  0.0000  0.0000  0.0000  0.0000
  o =  1.1991  v = -0.0991 -0.5173 -0.2193  0.1886  0.7993  0.0000  0.0000  0.0000  0.0000  0.0000      0.0000  0.0000  0.0000  0.0000  0.0000  0.0000  0.0000  0.0000  0.0000  0.0000
  o =  1.2061  v = -0.5729  0.0541  0.7334  0.3525  0.0820  0.0000  0.0000  0.0000  0.0000  0.0000      0.0000  0.0000  0.0000  0.0000  0.0000  0.0000  0.0000  0.0000  0.0000  0.0000
  o =  1.2193  v =  0.5889 -0.3277  0.6394 -0.3505  0.1191  0.0000  0.0000  0.0000  0.0000  0.0000      0.0000  0.0000  0.0000  0.0000  0.0000  0.0000  0.0000  0.0000  0.0000  0.0000
  o =  1.2535  v =  0.1278 -0.6372 -0.0507  0.5356 -0.5369  0.0000  0.0000  0.0000  0.0000  0.0000      0.0000  0.0000  0.0000  0.0000  0.0000  0.0000  0.0000  0.0000  0.0000  0.0000
  o =  1.2545  v = -0.5466 -0.4648 -0.0519 -0.6560 -0.2281  0.0000  0.0000  0.0000  0.0000  0.0000      0.0000  0.0000  0.0000  0.0000  0.0000  0.0000  0.0000  0.0000  0.0000  0.0000
atom =   3  type =  1  l = 2
 
 onsite density matrix
 
spin component  1
 
  0.0657 -0.0054  0.0092  0.0032  0.0042
 -0.0054  0.0684 -0.0051  0.0024  0.0090
  0.0092 -0.0051  0.0674  0.0018 -0.0036
  0.0032  0.0024  0.0018  0.0642  0.0097
  0.0042  0.0090 -0.0036  0.0097  0.0816
 
spin component  2
 
  1.2259  0.0055 -0.0059 -0.0180 -0.0043
  0.0055  1.2353  0.0009 -0.0008 -0.0237
 -0.0059  0.0009  1.2114 -0.0023  0.0041
 -0.0180 -0.0008 -0.0023  1.2419 -0.0080
 -0.0043 -0.0237  0.0041 -0.0080  1.2180
 
 occupancies and eigenvectors
 
  o =  0.0552  v = -0.7083 -0.2854  0.5346 -0.1387  0.3345  0.0000  0.0000  0.0000  0.0000  0.0000      0.0000  0.0000  0.0000  0.0000  0.0000  0.0000  0.0000  0.0000  0.0000  0.0000
  o =  0.0595  v =  0.2946  0.2235  0.1171 -0.8841  0.2607  0.0000  0.0000  0.0000  0.0000  0.0000      0.0000  0.0000  0.0000  0.0000  0.0000  0.0000  0.0000  0.0000  0.0000  0.0000
  o =  0.0619  v =  0.0604 -0.7557 -0.5549 -0.1542  0.3059  0.0000  0.0000  0.0000  0.0000  0.0000      0.0000  0.0000  0.0000  0.0000  0.0000  0.0000  0.0000  0.0000  0.0000  0.0000
  o =  0.0800  v = -0.6381  0.3658 -0.5996 -0.2545 -0.1863  0.0000  0.0000  0.0000  0.0000  0.0000      0.0000  0.0000  0.0000  0.0000  0.0000  0.0000  0.0000  0.0000  0.0000  0.0000
  o =  0.0908  v =  0.0274  0.4046 -0.1819  0.3326  0.8318  0.0000  0.0000  0.0000  0.0000  0.0000      0.0000  0.0000  0.0000  0.0000  0.0000  0.0000  0.0000  0.0000  0.0000  0.0000
  o =  1.1991  v =  0.0000  0.0000  0.0000  0.0000  0.0000  0.0991  0.5173 -0.2193  0.1886  0.7993      0.0000  0.0000  0.0000  0.0000  0.0000  0.0000  0.0000  0.0000  0.0000  0.0000
  o =  1.2061  v =  0.0000  0.0000  0.0000  0.0000  0.0000  0.5729 -0.0541  0.7334  0.3525  0.0820      0.0000  0.0000  0.0000  0.0000  0.0000  0.0000  0.0000  0.0000  0.0000  0.0000
  o =  1.2193  v =  0.0000  0.0000  0.0000  0.0000  0.0000 -0.5889  0.3277  0.6394 -0.3505  0.1191      0.0000  0.0000  0.0000  0.0000  0.0000  0.0000  0.0000  0.0000  0.0000  0.0000
  o =  1.2535  v =  0.0000  0.0000  0.0000  0.0000  0.0000 -0.1278  0.6372 -0.0507  0.5356 -0.5369      0.0000  0.0000  0.0000  0.0000  0.0000  0.0000  0.0000  0.0000  0.0000  0.0000
  o =  1.2545  v =  0.0000  0.0000  0.0000  0.0000  0.0000  0.5466  0.4648 -0.0519 -0.6560 -0.2281      0.0000  0.0000  0.0000  0.0000  0.0000  0.0000  0.0000  0.0000  0.0000  0.0000
atom =   4  type =  1  l = 2
 
 onsite density matrix
 
spin component  1
 
  1.2259  0.0055  0.0059  0.0180  0.0043
  0.0055  1.2353 -0.0009  0.0008  0.0237
  0.0059 -0.0009  1.2114 -0.0023  0.0041
  0.0180  0.0008 -0.0023  1.2419 -0.0080
  0.0043  0.0237  0.0041 -0.0080  1.2180
 
spin component  2
 
  0.0657 -0.0054 -0.0092 -0.0032 -0.0042
 -0.0054  0.0684  0.0051 -0.0024 -0.0090
 -0.0092  0.0051  0.0674  0.0018 -0.0036
 -0.0032 -0.0024  0.0018  0.0642  0.0097
 -0.0042 -0.0090 -0.0036  0.0097  0.0816
 
 occupancies and eigenvectors
 
  o =  0.0552  v =  0.0000  0.0000  0.0000  0.0000  0.0000 -0.7083 -0.2854 -0.5346  0.1387 -0.3345      0.0000  0.0000  0.0000  0.0000  0.0000  0.0000  0.0000  0.0000  0.0000  0.0000
  o =  0.0595  v =  0.0000  0.0000  0.0000  0.0000  0.0000  0.2946  0.2235 -0.1171  0.8841 -0.2607      0.0000  0.0000  0.0000  0.0000  0.0000  0.0000  0.0000  0.0000  0.0000  0.0000
  o =  0.0619  v =  0.0000  0.0000  0.0000  0.0000  0.0000 -0.0604  0.7557 -0.5549 -0.1542  0.3059      0.0000  0.0000  0.0000  0.0000  0.0000  0.0000  0.0000  0.0000  0.0000  0.0000
  o =  0.0800  v =  0.0000  0.0000  0.0000  0.0000  0.0000 -0.6381  0.3658  0.5996  0.2545  0.1863      0.0000  0.0000  0.0000  0.0000  0.0000  0.0000  0.0000  0.0000  0.0000  0.0000
  o =  0.0908  v =  0.0000  0.0000  0.0000  0.0000  0.0000  0.0274  0.4046  0.1819 -0.3326 -0.8318      0.0000  0.0000  0.0000  0.0000  0.0000  0.0000  0.0000  0.0000  0.0000  0.0000
  o =  1.1991  v = -0.0991 -0.5173 -0.2193  0.1886  0.7993  0.0000  0.0000  0.0000  0.0000  0.0000      0.0000  0.0000  0.0000  0.0000  0.0000  0.0000  0.0000  0.0000  0.0000  0.0000
  o =  1.2061  v = -0.5729  0.0541  0.7334  0.3525  0.0820  0.0000  0.0000  0.0000  0.0000  0.0000      0.0000  0.0000  0.0000  0.0000  0.0000  0.0000  0.0000  0.0000  0.0000  0.0000
  o =  1.2193  v =  0.5889 -0.3277  0.6394 -0.3505  0.1191  0.0000  0.0000  0.0000  0.0000  0.0000      0.0000  0.0000  0.0000  0.0000  0.0000  0.0000  0.0000  0.0000  0.0000  0.0000
  o =  1.2535  v =  0.1278 -0.6372 -0.0507  0.5356 -0.5369  0.0000  0.0000  0.0000  0.0000  0.0000      0.0000  0.0000  0.0000  0.0000  0.0000  0.0000  0.0000  0.0000  0.0000  0.0000
  o =  1.2545  v = -0.5466 -0.4648 -0.0519 -0.6560 -0.2281  0.0000  0.0000  0.0000  0.0000  0.0000      0.0000  0.0000  0.0000  0.0000  0.0000  0.0000  0.0000  0.0000  0.0000  0.0000
     EDDAV:  cpu time   30.6009: real time   30.6767
       DOS:  cpu time    0.0048: real time    0.0049
    CHARGE:  cpu time    0.8340: real time    0.8360
    MIXING:  cpu time    0.0014: real time    0.0024
    --------------------------------------------
      LOOP:  cpu time   31.5193: real time   31.6082

 eigenvalue-minimisations  : 11160
 total energy-change (2. order) :-0.7219098E+01  (-0.1300865E+03)
 number of electron     323.9999902 magnetization       0.0000000
 augmentation part       48.5036787 magnetization       0.0000000

 Broyden mixing:
  rms(total) = 0.92994E+01    rms(broyden)= 0.92993E+01
  rms(prec ) = 0.10603E+02
  weight for this iteration     100.00

 eigenvalues of (default mixing * dielectric matrix)
  average eigenvalue GAMMA=   0.3310
  0.3310

 Free energy of the ion-electron system (eV)
  ---------------------------------------------------
  alpha Z        PSCENC =       586.03410638
  Ewald energy   TEWEN  =     -9670.27654238
  -Hartree energ DENC   =     -7790.74336453
  -exchange      EXHF   =         0.00000000
  -V(xc)+E(xc)   XCENC  =      1240.41219345
  PAW double counting   =     10646.55366526   -10814.86522845
  entropy T*S    EENTRO =        -0.18157892
  eigenvalues    EBANDS =     -2993.08292585
  atomic energy  EATOM  =     18181.80053462
  Solvation  Ediel_sol  =         0.00000000
  ---------------------------------------------------
  free energy    TOTEN  =      -614.34914041 eV

  energy without entropy =     -614.16756150  energy(sigma->0) =     -614.25835095


--------------------------------------------------------------------------------------------------------




--------------------------------------- Iteration      1(   5)  ---------------------------------------


    POTLOK:  cpu time    0.0735: real time    0.0831
    SETDIJ:  cpu time    0.0129: real time    0.0129
atom =   1  type =  1  l = 2
 
 onsite density matrix
 
spin component  1
 
  0.4683  0.0029  0.0044  0.0123  0.0016
  0.0029  0.4599 -0.0026  0.0001  0.0145
  0.0044 -0.0026  0.4762  0.0003 -0.0016
  0.0123  0.0001  0.0003  0.4572 -0.0005
  0.0016  0.0145 -0.0016 -0.0005  0.4748
 
spin component  2
 
  0.9237 -0.0001 -0.0012 -0.0230 -0.0020
 -0.0001  0.9390 -0.0016  0.0013 -0.0249
 -0.0012 -0.0016  0.9071 -0.0013  0.0025
 -0.0230  0.0013 -0.0013  0.9454 -0.0003
 -0.0020 -0.0249  0.0025 -0.0003  0.9244
 
 occupancies and eigenvectors
 
  o =  0.4487  v = -0.5426  0.2986  0.0982  0.7710 -0.1111  0.0000  0.0000  0.0000  0.0000  0.0000      0.0000  0.0000  0.0000  0.0000  0.0000  0.0000  0.0000  0.0000  0.0000  0.0000
  o =  0.4512  v = -0.1188 -0.8008 -0.0335  0.3030  0.5016  0.0000  0.0000  0.0000  0.0000  0.0000      0.0000  0.0000  0.0000  0.0000  0.0000  0.0000  0.0000  0.0000  0.0000  0.0000
  o =  0.4718  v =  0.5209 -0.0584 -0.6771  0.4354 -0.2780  0.0000  0.0000  0.0000  0.0000  0.0000      0.0000  0.0000  0.0000  0.0000  0.0000  0.0000  0.0000  0.0000  0.0000  0.0000
  o =  0.4801  v =  0.6327  0.0392  0.6884  0.3493  0.0474  0.0000  0.0000  0.0000  0.0000  0.0000      0.0000  0.0000  0.0000  0.0000  0.0000  0.0000  0.0000  0.0000  0.0000  0.0000
  o =  0.4848  v = -0.1408 -0.5144  0.2384 -0.0471 -0.8103  0.0000  0.0000  0.0000  0.0000  0.0000      0.0000  0.0000  0.0000  0.0000  0.0000  0.0000  0.0000  0.0000  0.0000  0.0000
  o =  0.9052  v =  0.0000  0.0000  0.0000  0.0000  0.0000  0.0783  0.5172 -0.4342  0.0195  0.7331      0.0000  0.0000  0.0000  0.0000  0.0000  0.0000  0.0000  0.0000  0.0000  0.0000
  o =  0.9062  v =  0.0000  0.0000  0.0000  0.0000  0.0000 -0.4763 -0.2114 -0.7612 -0.3004 -0.2428      0.0000  0.0000  0.0000  0.0000  0.0000  0.0000  0.0000  0.0000  0.0000  0.0000
  o =  0.9104  v =  0.0000  0.0000  0.0000  0.0000  0.0000  0.6918 -0.2271 -0.4785  0.4442 -0.2088      0.0000  0.0000  0.0000  0.0000  0.0000  0.0000  0.0000  0.0000  0.0000  0.0000
  o =  0.9577  v =  0.0000  0.0000  0.0000  0.0000  0.0000  0.1221  0.7830 -0.0541 -0.1273 -0.5941      0.0000  0.0000  0.0000  0.0000  0.0000  0.0000  0.0000  0.0000  0.0000  0.0000
  o =  0.9601  v =  0.0000  0.0000  0.0000  0.0000  0.0000 -0.5231  0.1522 -0.0174  0.8342 -0.0841      0.0000  0.0000  0.0000  0.0000  0.0000  0.0000  0.0000  0.0000  0.0000  0.0000
atom =   2  type =  1  l = 2
 
 onsite density matrix
 
spin component  1
 
  0.9237 -0.0001  0.0012  0.0230  0.0020
 -0.0001  0.9390  0.0016 -0.0013  0.0249
  0.0012  0.0016  0.9071 -0.0013  0.0025
  0.0230 -0.0013 -0.0013  0.9454 -0.0003
  0.0020  0.0249  0.0025 -0.0003  0.9244
 
spin component  2
 
  0.4683  0.0029 -0.0044 -0.0123 -0.0016
  0.0029  0.4599  0.0026 -0.0001 -0.0145
 -0.0044  0.0026  0.4762  0.0003 -0.0016
 -0.0123 -0.0001  0.0003  0.4572 -0.0005
 -0.0016 -0.0145 -0.0016 -0.0005  0.4748
 
 occupancies and eigenvectors
 
  o =  0.4487  v =  0.0000  0.0000  0.0000  0.0000  0.0000 -0.5426  0.2986 -0.0982 -0.7710  0.1111      0.0000  0.0000  0.0000  0.0000  0.0000  0.0000  0.0000  0.0000  0.0000  0.0000
  o =  0.4512  v =  0.0000  0.0000  0.0000  0.0000  0.0000  0.1188  0.8008 -0.0335  0.3030  0.5016      0.0000  0.0000  0.0000  0.0000  0.0000  0.0000  0.0000  0.0000  0.0000  0.0000
  o =  0.4718  v =  0.0000  0.0000  0.0000  0.0000  0.0000  0.5209 -0.0584  0.6771 -0.4354  0.2780      0.0000  0.0000  0.0000  0.0000  0.0000  0.0000  0.0000  0.0000  0.0000  0.0000
  o =  0.4801  v =  0.0000  0.0000  0.0000  0.0000  0.0000  0.6327  0.0392 -0.6884 -0.3493 -0.0474      0.0000  0.0000  0.0000  0.0000  0.0000  0.0000  0.0000  0.0000  0.0000  0.0000
[...]
   0.362E+02 -.144E+02 -.558E+01   -.417E+02 0.165E+02 0.607E+01   0.543E+01 -.211E+01 -.496E+00   -.207E-05 0.196E-05 0.830E-05
   0.362E+02 0.144E+02 -.558E+01   -.417E+02 -.165E+02 0.607E+01   0.543E+01 0.211E+01 -.496E+00   -.204E-05 -.196E-05 0.827E-05
   -.204E+02 -.737E+01 0.468E+00   0.223E+02 0.859E+01 -.216E+00   -.185E+01 -.122E+01 -.252E+00   0.199E-04 0.287E-04 -.533E-05
   -.204E+02 0.737E+01 0.464E+00   0.223E+02 -.859E+01 -.217E+00   -.185E+01 0.122E+01 -.252E+00   0.199E-04 -.287E-04 -.539E-05
   -.204E+02 -.738E+01 0.467E+00   0.223E+02 0.859E+01 -.217E+00   -.185E+01 -.122E+01 -.252E+00   0.210E-04 0.288E-04 -.476E-05
   -.204E+02 0.737E+01 0.470E+00   0.223E+02 -.859E+01 -.217E+00   -.185E+01 0.122E+01 -.252E+00   0.209E-04 -.288E-04 -.470E-05
 -----------------------------------------------------------------------------------------------
   -.294E+02 -.177E+00 -.416E+02   0.711E-14 0.716E-12 -.153E-12   0.294E+02 0.444E-14 0.416E+02   -.286E-03 0.316E-06 0.358E-04
 
 
 POSITION                                       TOTAL-FORCE (eV/Angst)
 -----------------------------------------------------------------------------------
     14.09687      2.08366      0.02746         0.000525     -0.002517     -0.000130
     11.87064      6.16061      3.72018         0.000525      0.002517     -0.000130
      7.04534      6.20579      0.01749         0.000525     -0.002517     -0.000130
      4.81912      2.03847      3.71021         0.000525      0.002517     -0.000130
      1.48355      1.17728      1.19559         0.000007      0.001877      0.000531
     -0.74267      7.06699      4.88831         0.000007     -0.001877      0.000531
      8.53508      5.29941      1.20555         0.000007      0.001877      0.000531
      6.30886      2.94485      4.89828         0.000007     -0.001877      0.000531
     -2.13647      4.31854      4.69968        -0.000254     -0.002251      0.002143
      0.08975      3.92573      1.00695        -0.000254      0.002251      0.002143
      4.91504      0.19640      4.70965        -0.000254     -0.002251      0.002143
      7.14127      8.04786      1.01693        -0.000254      0.002251      0.002143
     -2.97182      2.74428      6.06192        -0.000007      0.001421     -0.003070
     -0.74559      5.50000      2.36920        -0.000007     -0.001421     -0.003070
      4.07971      6.86640      6.07189        -0.000007      0.001421     -0.003070
      6.30593      1.37786      2.37917        -0.000007     -0.001421     -0.003070
     11.71903      7.97790      2.63170        -0.000955      0.001239     -0.001850
      9.49281      0.26637      6.32441        -0.000955     -0.001239     -0.001850
      4.66751      3.85577      2.62172        -0.000955      0.001239     -0.001850
      2.44128      4.38850      6.31445        -0.000955     -0.001239     -0.001850
     12.56136      1.34471      1.32630        -0.000920      0.000088      0.000934
     10.33513      6.89957      5.01903        -0.000920     -0.000088      0.000934
      5.50983      5.46682      1.31634        -0.000920      0.000088      0.000934
      3.28360      2.77743      5.00906        -0.000920     -0.000088      0.000934
      3.28880      1.14634      2.50803         0.000134     -0.002733     -0.000311
      1.06258      7.09794      6.20075         0.000134      0.002733     -0.000311
     10.34033      5.26847      2.51799         0.000134     -0.002733     -0.000311
      8.11410      2.97579      6.21072         0.000134      0.002733     -0.000311
      9.36264      2.29290      0.69642        -0.000512     -0.000317      0.000114
      7.13642      5.95136      4.38914        -0.000512      0.000317      0.000114
      2.31111      6.41504      0.68645        -0.000512     -0.000317      0.000114
      0.08487      1.82923      4.37918        -0.000512      0.000317      0.000114
      2.38741      1.76814      1.85081        -0.000069     -0.003808      0.000446
      0.16119      6.47612      5.54353        -0.000069      0.003808      0.000446
      9.43894      5.89027      1.86077        -0.000069     -0.003808      0.000446
      7.21272      2.35400      5.55350        -0.000069      0.003808      0.000446
     -2.91203      3.93525      5.62631         0.001928     -0.002548     -0.000341
     -0.68580      4.30901      1.93357         0.001928      0.002548     -0.000341
      4.13951      8.05740      5.63625         0.001928     -0.002548     -0.000341
      6.36574      0.18688      1.94355         0.001928      0.002548     -0.000341
     12.64016      0.20825      1.91046        -0.001731      0.001554     -0.000785
     10.41392      8.03601      5.60319        -0.001731     -0.001554     -0.000785
      5.58862      4.33040      1.90050        -0.001731      0.001554     -0.000785
      3.36241      3.91388      5.59322        -0.001731     -0.001554     -0.000785
      9.46523      1.94851      3.14105        -0.000222     -0.001274      0.000605
      7.23901      6.29576      6.83377        -0.000222      0.001274      0.000605
      2.41372      6.07064      3.13108        -0.000222     -0.001274      0.000605
      0.18749      2.17363      6.82381        -0.000222      0.001274      0.000605
      9.36762      1.21847      0.49101         0.000398     -0.002564      0.000746
      7.14140      7.02579      4.18373         0.000398      0.002564      0.000746
      2.31610      5.34061      0.48104         0.000398     -0.002564      0.000746
      0.08987      2.90366      4.17376         0.000398      0.002564      0.000746
      5.38324      2.84468      7.26654        -0.000779     -0.000787      0.000927
      7.60948      5.39958      3.57382        -0.000779      0.000787      0.000927
     -1.66827      6.96683      7.25657        -0.000779     -0.000787      0.000927
      0.55795      1.27745      3.56384        -0.000779      0.000787      0.000927
      8.33095      2.62883      0.82169        -0.000869     -0.000977      0.001490
      6.10473      5.61544      4.51441        -0.000869      0.000977      0.001490
      1.27944      6.75096      0.81172        -0.000869     -0.000977      0.001490
     -0.94680      1.49331      4.50444        -0.000869      0.000977      0.001490
      2.41208      2.87541      1.86585         0.000308     -0.002054      0.001189
      0.18586      5.36886      5.55857         0.000308      0.002054      0.001189
      9.46361      6.99754      1.87581         0.000308     -0.002054      0.001189
      7.23738      1.24672      5.56854         0.000308      0.002054      0.001189
     -3.57714      4.68516      6.09803         0.001347     -0.000353     -0.000682
     -1.35091      3.55911      2.40530         0.001347      0.000353     -0.000682
      3.47438      0.56303      6.10798         0.001347     -0.000353     -0.000682
      5.70061      7.68124      2.41527         0.001347      0.000353     -0.000682
     -0.53609      7.86800      1.74695        -0.000867      0.000989      0.000016
     -2.76231      0.37626      5.43966        -0.000867     -0.000989      0.000016
      6.51545      3.74587      1.75690        -0.000867      0.000989      0.000016
      4.28921      4.49840      5.44964        -0.000867     -0.000989      0.000016
     11.07976      2.12246      1.81703         0.001224     -0.000480     -0.000596
      8.85353      6.12180      5.50975         0.001224      0.000480     -0.000596
      4.02823      6.24460      1.80706         0.001224     -0.000480     -0.000596
      1.80200      1.99967      5.49978         0.001224      0.000480     -0.000596
     10.22058      3.57652      2.11357         0.000552      0.000573      0.000114
      7.99435      4.66775      5.80630         0.000552     -0.000573      0.000114
      3.16905      7.69866      2.10361         0.000552      0.000573      0.000114
      0.94282      0.54562      5.79632         0.000552     -0.000573      0.000114
     10.06347      2.18014      4.02607        -0.000075     -0.001226     -0.001314
     12.28969      6.06413      0.33335        -0.000075      0.001226     -0.001314
      3.01194      6.30227      4.01610        -0.000075     -0.001226     -0.001314
      5.23816      1.94200      0.32338        -0.000075      0.001226     -0.001314
      9.40387      0.86411      3.01410         0.001392     -0.002730     -0.000507
      7.17766      7.38016      6.70682         0.001392      0.002730     -0.000507
      2.35236      4.98624      3.00413         0.001392     -0.002730     -0.000507
      0.12612      3.25802      6.69685         0.001392      0.002730     -0.000507
      8.45808      2.36585      3.22600         0.000074     -0.001222      0.000005
      6.23186      5.87843      6.91872         0.000074      0.001222      0.000005
      1.40655      6.48797      3.21603         0.000074     -0.001222      0.000005
     -0.81968      1.75628      6.90875         0.000074      0.001222      0.000005
     10.11831      2.53887      1.94793        -0.000628      0.000196      0.000328
      7.89208      5.70539      5.64066        -0.000628     -0.000196      0.000328
      3.06678      6.66101      1.93796        -0.000628      0.000196      0.000328
      0.84055      1.58326      5.63068        -0.000628     -0.000196      0.000328
 -----------------------------------------------------------------------------------
    total drift:                                0.007576     -0.177428     -0.002219


--------------------------------------------------------------------------------------------------------



  FREE ENERGIE OF THE ION-ELECTRON SYSTEM (eV)
  ---------------------------------------------------
  free  energy   TOTEN  =      -572.77781960 eV

  energy  without entropy=     -572.77781960  energy(sigma->0) =     -572.77781960
 


--------------------------------------------------------------------------------------------------------


    POTLOK:  cpu time    0.1148: real time    0.1151


--------------------------------------------------------------------------------------------------------


     LOOP+:  cpu time 1291.6094: real time 1295.3497
    4ORBIT:  cpu time    0.0000: real time    0.0000
 


 total charge     
 
# of ion       s       p       d       tot
------------------------------------------
    1        0.274   0.337   7.079   7.690
    2        0.274   0.337   7.079   7.690
    3        0.274   0.337   7.079   7.690
    4        0.274   0.337   7.079   7.690
    5        1.570   3.574   0.000   5.144
    6        1.570   3.574   0.000   5.144
    7        1.570   3.574   0.000   5.144
    8        1.570   3.574   0.000   5.144
    9        1.568   3.572   0.000   5.140
   10        1.568   3.573   0.000   5.141
   11        1.568   3.573   0.000   5.141
   12        1.568   3.573   0.000   5.141
   13        1.569   3.571   0.000   5.140
   14        1.569   3.571   0.000   5.140
   15        1.569   3.571   0.000   5.140
   16        1.569   3.571   0.000   5.140
   17        1.570   3.573   0.000   5.143
   18        1.570   3.573   0.000   5.143
   19        1.570   3.573   0.000   5.143
   20        1.570   3.573   0.000   5.143
   21        1.567   3.573   0.000   5.140
   22        1.567   3.573   0.000   5.140
   23        1.567   3.573   0.000   5.140
   24        1.567   3.573   0.000   5.140
   25        1.568   3.573   0.000   5.141
   26        1.568   3.573   0.000   5.141
   27        1.568   3.573   0.000   5.141
   28        1.568   3.574   0.000   5.141
   29        0.843   1.780   0.000   2.623
   30        0.843   1.780   0.000   2.623
   31        0.843   1.780   0.000   2.623
   32        0.843   1.780   0.000   2.623
   33        0.875   1.707   0.000   2.582
   34        0.875   1.707   0.000   2.582
   35        0.875   1.707   0.000   2.582
   36        0.875   1.707   0.000   2.582
   37        0.874   1.710   0.000   2.584
   38        0.874   1.710   0.000   2.584
   39        0.874   1.710   0.000   2.584
   40        0.874   1.710   0.000   2.584
   41        0.875   1.705   0.000   2.581
   42        0.875   1.705   0.000   2.581
   43        0.875   1.705   0.000   2.581
   44        0.875   1.705   0.000   2.581
   45        0.843   1.782   0.000   2.625
   46        0.843   1.782   0.000   2.625
   47        0.843   1.782   0.000   2.625
   48        0.843   1.782   0.000   2.624
   49        0.645   0.047   0.000   0.692
   50        0.645   0.047   0.000   0.692
   51        0.645   0.047   0.000   0.692
   52        0.645   0.047   0.000   0.692
   53        0.647   0.048   0.000   0.695
   54        0.647   0.048   0.000   0.695
   55        0.647   0.048   0.000   0.695
   56        0.647   0.048   0.000   0.695
   57        0.643   0.048   0.000   0.691
   58        0.643   0.048   0.000   0.691
   59        0.643   0.048   0.000   0.691
   60        0.643   0.048   0.000   0.691
   61        0.639   0.045   0.000   0.684
   62        0.639   0.045   0.000   0.684
   63        0.639   0.045   0.000   0.684
   64        0.639   0.045   0.000   0.684
   65        0.644   0.045   0.000   0.689
   66        0.644   0.045   0.000   0.689
   67        0.644   0.045   0.000   0.689
   68        0.644   0.045   0.000   0.689
   69        0.640   0.046   0.000   0.686
   70        0.640   0.046   0.000   0.686
   71        0.640   0.046   0.000   0.686
   72        0.640   0.046   0.000   0.686
   73        0.585   0.088   0.000   0.673
   74        0.585   0.088   0.000   0.673
   75        0.585   0.088   0.000   0.673
   76        0.585   0.088   0.000   0.673
   77        0.585   0.088   0.000   0.673
   78        0.585   0.088   0.000   0.673
   79        0.585   0.088   0.000   0.673
   80        0.585   0.088   0.000   0.673
   81        0.642   0.049   0.000   0.691
   82        0.642   0.049   0.000   0.691
   83        0.642   0.049   0.000   0.691
   84        0.642   0.049   0.000   0.691
   85        0.644   0.047   0.000   0.692
   86        0.644   0.047   0.000   0.692
   87        0.644   0.047   0.000   0.692
   88        0.644   0.047   0.000   0.692
   89        0.644   0.048   0.000   0.692
   90        0.644   0.048   0.000   0.692
   91        0.644   0.048   0.000   0.692
   92        0.644   0.048   0.000   0.692
   93        1.210   2.736   0.000   3.946
   94        1.210   2.736   0.000   3.946
   95        1.210   2.736   0.000   3.946
   96        1.210   2.736   0.000   3.946
--------------------------------------------------
tot         88.659 135.170  28.317 252.145
 


 magnetization (x)
 
# of ion       s       p       d       tot
------------------------------------------
    1       -0.011  -0.009  -2.760  -2.780
    2        0.011   0.009   2.760   2.780
    3       -0.011  -0.009  -2.760  -2.780
    4        0.011   0.009   2.760   2.780
    5       -0.003  -0.019   0.000  -0.022
    6        0.003   0.019   0.000   0.022
    7       -0.003  -0.019   0.000  -0.022
    8        0.003   0.019   0.000   0.022
    9        0.003   0.019   0.000   0.022
   10       -0.003  -0.019   0.000  -0.022
   11        0.003   0.019   0.000   0.022
   12       -0.003  -0.019   0.000  -0.022
   13       -0.003  -0.022   0.000  -0.025
   14        0.003   0.022   0.000   0.025
   15       -0.003  -0.022   0.000  -0.025
   16        0.003   0.022   0.000   0.025
   17        0.003   0.018   0.000   0.021
   18       -0.003  -0.018   0.000  -0.021
   19        0.003   0.018   0.000   0.021
   20       -0.003  -0.018   0.000  -0.021
   21       -0.003  -0.017   0.000  -0.020
   22        0.003   0.017   0.000   0.020
   23       -0.003  -0.017   0.000  -0.020
   24        0.003   0.017   0.000   0.020
   25        0.003   0.016   0.000   0.019
   26       -0.003  -0.016   0.000  -0.019
   27        0.003   0.016   0.000   0.019
   28       -0.003  -0.016   0.000  -0.019
   29       -0.000   0.000   0.000   0.000
   30        0.000  -0.000   0.000  -0.000
   31       -0.000   0.000   0.000   0.000
   32        0.000  -0.000   0.000  -0.000
   33        0.000  -0.000   0.000  -0.000
   34       -0.000   0.000   0.000   0.000
   35        0.000  -0.000   0.000  -0.000
   36       -0.000   0.000   0.000   0.000
   37        0.000   0.000   0.000   0.001
   38       -0.000  -0.000   0.000  -0.001
   39        0.000   0.000   0.000   0.001
   40       -0.000  -0.000   0.000  -0.001
   41        0.000  -0.000   0.000   0.000
   42       -0.000   0.000   0.000  -0.000
   43        0.000  -0.000   0.000   0.000
   44       -0.000   0.000   0.000  -0.000
   45        0.000   0.000   0.000   0.000
   46       -0.000  -0.000   0.000  -0.000
   47        0.000   0.000   0.000   0.000
   48       -0.000  -0.000   0.000  -0.000
   49       -0.000   0.000   0.000  -0.000
   50        0.000  -0.000   0.000   0.000
   51       -0.000   0.000   0.000  -0.000
   52        0.000  -0.000   0.000   0.000
   53       -0.000  -0.000   0.000  -0.000
   54        0.000   0.000   0.000   0.000
   55       -0.000  -0.000   0.000  -0.000
   56        0.000   0.000   0.000   0.000
   57       -0.000   0.000   0.000  -0.000
   58        0.000  -0.000   0.000   0.000
   59       -0.000   0.000   0.000  -0.000
   60        0.000  -0.000   0.000   0.000
   61       -0.000   0.000   0.000  -0.000
   62        0.000  -0.000   0.000   0.000
   63       -0.000   0.000   0.000  -0.000
   64        0.000  -0.000   0.000   0.000
   65       -0.000  -0.000   0.000  -0.000
   66        0.000   0.000   0.000   0.000
   67       -0.000  -0.000   0.000  -0.000
   68        0.000   0.000   0.000   0.000
   69        0.000  -0.000   0.000   0.000
   70       -0.000   0.000   0.000  -0.000
   71        0.000  -0.000   0.000   0.000
   72       -0.000   0.000   0.000  -0.000
   73       -0.000  -0.000   0.000  -0.000
   74        0.000   0.000   0.000   0.000
   75       -0.000  -0.000   0.000  -0.000
   76        0.000   0.000   0.000   0.000
   77        0.000   0.000   0.000   0.000
   78       -0.000  -0.000   0.000  -0.000
   79        0.000   0.000   0.000   0.000
   80       -0.000  -0.000   0.000  -0.000
   81        0.000   0.000   0.000   0.000
   82       -0.000  -0.000   0.000  -0.000
   83        0.000   0.000   0.000   0.000
   84       -0.000  -0.000   0.000  -0.000
   85        0.000   0.000   0.000   0.000
   86       -0.000  -0.000   0.000  -0.000
   87        0.000   0.000   0.000   0.000
   88       -0.000  -0.000   0.000  -0.000
   89        0.000   0.000   0.000   0.000
   90       -0.000  -0.000   0.000  -0.000
   91        0.000   0.000   0.000   0.000
   92       -0.000  -0.000   0.000  -0.000
   93       -0.000  -0.000   0.000  -0.000
   94        0.000   0.000   0.000   0.000
   95       -0.000  -0.000   0.000  -0.000
   96        0.000   0.000   0.000   0.000
--------------------------------------------------
tot          0.000  -0.000  -0.000  -0.000
 

 total amount of memory used by VASP MPI-rank0   400075. kBytes
=======================================================================

   base      :      30000. kBytes
   nonl-proj :     263969. kBytes
   fftplans  :       4059. kBytes
   grid      :      61277. kBytes
   one-center:       2985. kBytes
   wavefun   :      37785. kBytes
 
  
  
 General timing and accounting informations for this job:
 ========================================================
  
                  Total CPU time used (sec):     1310.061
                            User time (sec):     1307.022
                          System time (sec):        3.040
                         Elapsed time (sec):     1346.926
  
                   Maximum memory used (kb):      672184.
                   Average memory used (kb):           0.
  
                          Minor page faults:      2286716
                          Major page faults:          133
                 Voluntary context switches:        14954
