 vasp.5.4.1 24Jun15 (build Aug 03 2015 13:31:17) complex                        
  
 executed on      LinuxIFC_2015xe date 2022.03.19  14:34:53
 running on   48 total cores
 distrk:  each k-point on   48 cores,    1 groups
 distr:  one band on NCORES_PER_BAND=   1 cores,   48 groups


--------------------------------------------------------------------------------------------------------


 INCAR:
 POTCAR:    PAW_PBE Zn 06Sep2000                  
 POTCAR:   PAW_PBE O 08Apr2002                    
 POTCAR:   PAW_PBE C 08Apr2002                    
 POTCAR:   PAW_PBE H 15Jun2001                    
 POTCAR:   PAW_PBE N 08Apr2002                    

 ----------------------------------------------------------------------------- 
|                                                                             |
|           W    W    AA    RRRRR   N    N  II  N    N   GGGG   !!!           |
|           W    W   A  A   R    R  NN   N  II  NN   N  G    G  !!!           |
|           W    W  A    A  R    R  N N  N  II  N N  N  G       !!!           |
|           W WW W  AAAAAA  RRRRR   N  N N  II  N  N N  G  GGG   !            |
|           WW  WW  A    A  R   R   N   NN  II  N   NN  G    G                |
|           W    W  A    A  R    R  N    N  II  N    N   GGGG   !!!           |
|                                                                             |
|      For optimal performance we recommend to set                            |
|        NCORE= 4 - approx SQRT( number of cores)                             |
|      NCORE specifies how many cores store one orbital (NPAR=cpu/NCORE).     |
|      This setting can  greatly improve the performance of VASP for DFT.     |
|      The default, NPAR=number of cores might be grossly inefficient         |
|      on modern multi-core architectures or massively parallel machines.     |
|      Do your own testing !!!!                                               |
|      Unfortunately you need to use the default for GW and RPA calculations. |
|      (for HF NCORE is supported but not extensively tested yet)             |
|                                                                             |
 ----------------------------------------------------------------------------- 

 POTCAR:    PAW_PBE Zn 06Sep2000                  
   VRHFIN =Zn: d10 p2                                                           
   LEXCH  = PE                                                                  
   EATOM  =  1748.8345 eV,  128.5357 Ry                                         
                                                                                
   TITEL  = PAW_PBE Zn 06Sep2000                                                
   LULTRA =        F    use ultrasoft PP ?                                      
   IUNSCR =        1    unscreen: 0-lin 1-nonlin 2-no                           
   RPACOR =    2.000    partial core radius                                     
   POMASS =   65.390; ZVAL   =   12.000    mass and valenz                      
   RCORE  =    2.300    outmost cutoff radius                                   
   RWIGS  =    2.400; RWIGS  =    1.270    wigner-seitz radius (au A)           
   ENMAX  =  276.723; ENMIN  =  207.542 eV                                      
   RCLOC  =    1.828    cutoff for local pot                                    
   LCOR   =        T    correct aug charges                                     
   LPAW   =        T    paw PP                                                  
   EAUG   =  575.892                                                            
   DEXC   =    0.000                                                            
   RMAX   =    2.347    core radius for proj-oper                               
   RAUG   =    1.300    factor for augmentation sphere                          
   RDEP   =    2.324    radius for radial grids                                 
   RDEPT  =    1.788    core radius for aug-charge                              
                                                                                
   Atomic configuration                                                         
    9 entries                                                                   
     n  l   j            E        occ.                                          
     1  0  0.50     -9524.6913   2.0000                                         
     2  0  0.50     -1158.1882   2.0000                                         
     2  1  1.50     -1003.8506   6.0000                                         
     3  0  0.50      -129.2194   2.0000                                         
     3  1  1.50       -83.3890   6.0000                                         
     3  2  2.50       -10.1410  10.0000                                         
     4  0  0.50        -5.9785   2.0000                                         
     4  1  0.50        -4.0817   0.0000                                         
     4  3  2.50        -1.3606   0.0000                                         
   Description                                                                  
     l       E           TYP  RCUT    TYP  RCUT                                 
     2    -10.1410010     23  2.300                                             
     2    -11.5015836     23  2.300                                             
     0     -5.9785163     23  2.300                                             
     0      1.1858015     23  2.300                                             
     1     -2.7211652     23  2.300                                             
     1     13.2444212     23  2.300                                             
  local pseudopotential read in
  partial core-charges read in
  partial kinetic energy density read in
  atomic valenz-charges read in
  non local Contribution for L=           2  read in
    real space projection operators read in
  non local Contribution for L=           2  read in
    real space projection operators read in
  non local Contribution for L=           0  read in
    real space projection operators read in
  non local Contribution for L=           0  read in
    real space projection operators read in
  non local Contribution for L=           1  read in
    real space projection operators read in
  non local Contribution for L=           1  read in
    real space projection operators read in
    PAW grid and wavefunctions read in
 
   number of l-projection  operators is LMAX  =           6
   number of lm-projection operators is LMMAX =          18
 
 POTCAR:   PAW_PBE O 08Apr2002                    
   VRHFIN =O: s2p4                                                              
   LEXCH  = PE                                                                  
   EATOM  =   432.3788 eV,   31.7789 Ry                                         
                                                                                
   TITEL  = PAW_PBE O 08Apr2002                                                 
   LULTRA =        F    use ultrasoft PP ?                                      
   IUNSCR =        0    unscreen: 0-lin 1-nonlin 2-no                           
   RPACOR =     .000    partial core radius                                     
   POMASS =   16.000; ZVAL   =    6.000    mass and valenz                      
   RCORE  =    1.520    outmost cutoff radius                                   
   RWIGS  =    1.550; RWIGS  =     .820    wigner-seitz radius (au A)           
   ENMAX  =  400.000; ENMIN  =  300.000 eV                                      
   ICORE  =        2    local potential                                         
   LCOR   =        T    correct aug charges                                     
   LPAW   =        T    paw PP                                                  
   EAUG   =  605.392                                                            
   DEXC   =     .000                                                            
   RMAX   =    2.264    core radius for proj-oper                               
   RAUG   =    1.300    factor for augmentation sphere                          
   RDEP   =    1.550    radius for radial grids                                 
   QCUT   =   -5.520; QGAM   =   11.041    optimization parameters              
                                                                                
   Description                                                                  
     l     E      TYP  RCUT    TYP  RCUT                                        
     0   .000     23  1.200                                                     
     0  -.700     23  1.200                                                     
     1   .000     23  1.520                                                     
     1   .600     23  1.520                                                     
     2   .000      7  1.500                                                     
  local pseudopotential read in
  atomic valenz-charges read in
  non local Contribution for L=           0  read in
    real space projection operators read in
  non local Contribution for L=           0  read in
    real space projection operators read in
  non local Contribution for L=           1  read in
    real space projection operators read in
  non local Contribution for L=           1  read in
    real space projection operators read in
    PAW grid and wavefunctions read in
 
   number of l-projection  operators is LMAX  =           4
   number of lm-projection operators is LMMAX =           8
 
 POTCAR:   PAW_PBE C 08Apr2002                    
   VRHFIN =C: s2p2                                                              
   LEXCH  = PE                                                                  
   EATOM  =   147.1560 eV,   10.8157 Ry                                         
                                                                                
   TITEL  = PAW_PBE C 08Apr2002                                                 
   LULTRA =        F    use ultrasoft PP ?                                      
   IUNSCR =        0    unscreen: 0-lin 1-nonlin 2-no                           
   RPACOR =     .000    partial core radius                                     
   POMASS =   12.011; ZVAL   =    4.000    mass and valenz                      
   RCORE  =    1.500    outmost cutoff radius                                   
   RWIGS  =    1.630; RWIGS  =     .863    wigner-seitz radius (au A)           
   ENMAX  =  400.000; ENMIN  =  300.000 eV                                      
   ICORE  =        2    local potential                                         
   LCOR   =        T    correct aug charges                                     
   LPAW   =        T    paw PP                                                  
   EAUG   =  644.873                                                            
   DEXC   =     .000                                                            
   RMAX   =    2.266    core radius for proj-oper                               
   RAUG   =    1.300    factor for augmentation sphere                          
   RDEP   =    1.501    radius for radial grids                                 
   RDEPT  =    1.300    core radius for aug-charge                              
   QCUT   =   -5.516; QGAM   =   11.032    optimization parameters              
                                                                                
   Description                                                                  
     l     E      TYP  RCUT    TYP  RCUT                                        
     0   .000     23  1.200                                                     
     0   .000     23  1.200                                                     
     1   .000     23  1.500                                                     
     1  2.500     23  1.500                                                     
     2   .000      7  1.500                                                     
  local pseudopotential read in
  atomic valenz-charges read in
  non local Contribution for L=           0  read in
    real space projection operators read in
  non local Contribution for L=           0  read in
    real space projection operators read in
  non local Contribution for L=           1  read in
    real space projection operators read in
  non local Contribution for L=           1  read in
    real space projection operators read in
    PAW grid and wavefunctions read in
 
   number of l-projection  operators is LMAX  =           4
   number of lm-projection operators is LMMAX =           8
 
 POTCAR:   PAW_PBE H 15Jun2001                    
   VRHFIN =H: ultrasoft test                                                    
   LEXCH  = PE                                                                  
   EATOM  =    12.4884 eV,     .9179 Ry                                         
                                                                                
   TITEL  = PAW_PBE H 15Jun2001                                                 
   LULTRA =        F    use ultrasoft PP ?                                      
   IUNSCR =        0    unscreen: 0-lin 1-nonlin 2-no                           
   RPACOR =     .000    partial core radius                                     
   POMASS =    1.000; ZVAL   =    1.000    mass and valenz                      
   RCORE  =    1.100    outmost cutoff radius                                   
   RWIGS  =     .700; RWIGS  =     .370    wigner-seitz radius (au A)           
   ENMAX  =  250.000; ENMIN  =  200.000 eV                                      
   RCLOC  =     .701    cutoff for local pot                                    
   LCOR   =        T    correct aug charges                                     
   LPAW   =        T    paw PP                                                  
   EAUG   =  400.000                                                            
   RMAX   =    2.174    core radius for proj-oper                               
   RAUG   =    1.200    factor for augmentation sphere                          
   RDEP   =    1.112    radius for radial grids                                 
   QCUT   =   -5.749; QGAM   =   11.498    optimization parameters              
                                                                                
   Description                                                                  
     l     E      TYP  RCUT    TYP  RCUT                                        
     0   .000     23  1.100                                                     
     0   .500     23  1.100                                                     
     1  -.300     23  1.100                                                     
  local pseudopotential read in
  atomic valenz-charges read in
  non local Contribution for L=           0  read in
    real space projection operators read in
  non local Contribution for L=           0  read in
    real space projection operators read in
  non local Contribution for L=           1  read in
    real space projection operators read in
    PAW grid and wavefunctions read in
 
   number of l-projection  operators is LMAX  =           3
   number of lm-projection operators is LMMAX =           5
 
 POTCAR:   PAW_PBE N 08Apr2002                    
   VRHFIN =N: s2p3                                                              
   LEXCH  = PE                                                                  
   EATOM  =   264.5486 eV,   19.4438 Ry                                         
                                                                                
   TITEL  = PAW_PBE N 08Apr2002                                                 
   LULTRA =        F    use ultrasoft PP ?                                      
   IUNSCR =        0    unscreen: 0-lin 1-nonlin 2-no                           
   RPACOR =     .000    partial core radius                                     
   POMASS =   14.001; ZVAL   =    5.000    mass and valenz                      
   RCORE  =    1.500    outmost cutoff radius                                   
   RWIGS  =    1.400; RWIGS  =     .741    wigner-seitz radius (au A)           
   ENMAX  =  400.000; ENMIN  =  300.000 eV                                      
   ICORE  =        2    local potential                                         
   LCOR   =        T    correct aug charges                                     
   LPAW   =        T    paw PP                                                  
   EAUG   =  627.112                                                            
   DEXC   =     .000                                                            
   RMAX   =    2.247    core radius for proj-oper                               
   RAUG   =    1.300    factor for augmentation sphere                          
   RDEP   =    1.514    radius for radial grids                                 
   QCUT   =   -5.562; QGAM   =   11.124    optimization parameters              
                                                                                
   Description                                                                  
     l     E      TYP  RCUT    TYP  RCUT                                        
     0   .000     23  1.200                                                     
     0   .000     23  1.200                                                     
     1   .000     23  1.500                                                     
     1   .700     23  1.500                                                     
     2   .000      7  1.500                                                     
  local pseudopotential read in
  atomic valenz-charges read in
  non local Contribution for L=           0  read in
    real space projection operators read in
  non local Contribution for L=           0  read in
    real space projection operators read in
  non local Contribution for L=           1  read in
    real space projection operators read in
  non local Contribution for L=           1  read in
    real space projection operators read in
    PAW grid and wavefunctions read in
 
   number of l-projection  operators is LMAX  =           4
   number of lm-projection operators is LMMAX =           8
 

 ----------------------------------------------------------------------------- 
|                                                                             |
|  ADVICE TO THIS USER RUNNING 'VASP/VAMP'   (HEAR YOUR MASTER'S VOICE ...):  |
|                                                                             |
|      You have a (more or less) 'large supercell' and for larger cells       |
|      it might be more efficient to use real space projection opertators     |
|      So try LREAL= Auto  in the INCAR   file.                               |
|      Mind: At the moment your POTCAR file does not contain real space       |
|       projectors, and has to be modified,  BUT if you                       |
|      want to do an extremely  accurate calculation you might also keep the  |
|      reciprocal projection scheme          (i.e. LREAL=.FALSE.)             |
|                                                                             |
 ----------------------------------------------------------------------------- 

  PAW_PBE Zn 06Sep2000                  :
 energy of atom  1       EATOM=-1748.8345
 kinetic energy error for atom=    0.0007 (will be added to EATOM!!)
 PAW_PBE O 08Apr2002                    :
 energy of atom  2       EATOM= -432.3788
 kinetic energy error for atom=    0.0091 (will be added to EATOM!!)
 PAW_PBE C 08Apr2002                    :
 energy of atom  3       EATOM= -147.1560
 kinetic energy error for atom=    0.0032 (will be added to EATOM!!)
 PAW_PBE H 15Jun2001                    :
 energy of atom  4       EATOM=  -12.4884
 kinetic energy error for atom=    0.0002 (will be added to EATOM!!)
 PAW_PBE N 08Apr2002                    :
 energy of atom  5       EATOM= -264.5486
 kinetic energy error for atom=    0.0061 (will be added to EATOM!!)
 
 
 POSCAR: C3 H3 Co O6, H5 N2                      
  positions in direct lattice
  velocities in cartesian coordinates
 exchange correlation table for  LEXCH =        8
   RHO(1)=    0.500       N(1)  =     2000
   RHO(2)=  100.500       N(2)  =     4000
 


--------------------------------------------------------------------------------------------------------


 ion  position               nearest neighbor table
   1  0.539  0.500  0.512-  10 2.12  21 2.13  13 2.13  27 2.13  19 2.13   5 2.14
   2  0.461  0.500  0.012-   9 2.12  22 2.13  14 2.13  28 2.13  20 2.13   6 2.14
   3  0.039  0.000  0.512-  12 2.12  23 2.13  15 2.13  25 2.13  17 2.13   7 2.14
   4  0.961  1.000  0.012-  11 2.12  24 2.13  16 2.13  26 2.13  18 2.13   8 2.14
   5  0.563  0.648  0.668-  29 1.28   1 2.14
   6  0.437  0.352  0.168-  30 1.28   2 2.14
   7  0.063  0.852  0.668-  31 1.28   3 2.14
   8  0.937  0.148  0.168-  32 1.28   4 2.14
   9  0.506  0.642  0.858-  29 1.27   2 2.12
  10  0.494  0.358  0.358-  30 1.27   1 2.12
  11  0.006  0.858  0.858-  31 1.27   4 2.12
  12  0.994  0.142  0.358-  32 1.27   3 2.12
  13  0.446  0.730  0.439-  33 1.27   1 2.13
  14  0.554  0.270  0.939-  34 1.27   2 2.13
  15  0.946  0.770  0.439-  35 1.27   3 2.13
  16  0.054  0.230  0.939-  36 1.27   4 2.13
  17  0.255  0.925  0.439-  33 1.28   3 2.13
  18  0.745  0.075  0.939-  34 1.28   4 2.13
  19  0.755  0.575  0.439-  35 1.28   1 2.13
  20  0.245  0.425  0.939-  36 1.28   2 2.13
  21  0.320  0.428  0.580-  37 1.26   1 2.13
  22  0.680  0.572  0.080-  38 1.26   2 2.13
  23  0.820  0.072  0.580-  39 1.26   3 2.13
  24  0.180  0.928  0.080-  40 1.26   4 2.13
  25  0.129  0.233  0.583-  37 1.28   3 2.13
  26  0.871  0.767  0.083-  38 1.28   4 2.13
  27  0.629  0.267  0.583-  39 1.28   1 2.13
  28  0.371  0.733  0.083-  40 1.28   2 2.13
  29  0.538  0.567  0.762-  41 1.10   9 1.27   5 1.28
  30  0.462  0.433  0.262-  42 1.10  10 1.27   6 1.28
  31  0.038  0.933  0.762-  43 1.10  11 1.27   7 1.28
  32  0.962  0.067  0.262-  44 1.10  12 1.27   8 1.28
  33  0.324  0.794  0.482-  45 1.10  13 1.27  17 1.28
  34  0.676  0.206  0.982-  46 1.10  14 1.27  18 1.28
  35  0.824  0.706  0.482-  47 1.10  15 1.27  19 1.28
  36  0.176  0.294  0.982-  48 1.10  16 1.27  20 1.28
  37  0.266  0.281  0.555-  49 1.10  21 1.26  25 1.28
  38  0.734  0.719  0.055-  50 1.10  22 1.26  26 1.28
  39  0.766  0.219  0.555-  51 1.10  23 1.26  27 1.28
  40  0.234  0.781  0.055-  52 1.10  24 1.26  28 1.28
  41  0.543  0.425  0.760-  29 1.10
  42  0.457  0.575  0.260-  30 1.10
  43  0.043  0.075  0.760-  31 1.10
  44  0.957  0.925  0.260-  32 1.10
  45  0.273  0.734  0.560-  33 1.10
  46  0.727  0.266  0.060-  34 1.10
  47  0.773  0.766  0.560-  35 1.10
  48  0.227  0.234  0.060-  36 1.10
  49  0.339  0.189  0.507-  37 1.10
  50  0.661  0.811  0.007-  38 1.10
  51  0.839  0.311  0.507-  39 1.10
  52  0.161  0.689  0.007-  40 1.10
  53  0.071  0.410  0.677-  77 1.05
  54  0.929  0.590  0.177-  78 1.05
  55  0.571  0.090  0.677-  79 1.05
  56  0.429  0.910  0.177-  80 1.05
  57  0.070  0.629  0.702-  77 1.05
  58  0.930  0.371  0.202-  78 1.05
  59  0.570  0.871  0.702-  79 1.05
  60  0.430  0.129  0.202-  80 1.05
  61  0.146  0.488  0.803-  77 1.05
  62  0.854  0.512  0.303-  78 1.05
  63  0.646  0.012  0.803-  79 1.05
  64  0.354  0.988  0.303-  80 1.05
  65  0.915  0.398  0.852-  73 1.03
  66  0.085  0.602  0.352-  74 1.03
  67  0.415  0.102  0.852-  75 1.03
  68  0.585  0.898  0.352-  76 1.03
  69  0.897  0.610  0.839-  73 1.03
  70  0.103  0.390  0.339-  74 1.03
  71  0.397  0.890  0.839-  75 1.03
  72  0.603  0.110  0.339-  76 1.03
  73  0.906  0.497  0.793-  69 1.03  65 1.03  77 1.45
  74  0.094  0.503  0.293-  70 1.03  66 1.03  78 1.45
  75  0.406  0.003  0.793-  71 1.03  67 1.03  79 1.45
  76  0.594  0.997  0.293-  72 1.03  68 1.03  80 1.45
  77  0.059  0.506  0.741-  53 1.05  61 1.05  57 1.05  73 1.45
  78  0.941  0.494  0.241-  54 1.05  62 1.05  58 1.05  74 1.45
  79  0.559  0.994  0.741-  55 1.05  63 1.05  59 1.05  75 1.45
  80  0.441  0.006  0.241-  56 1.05  64 1.05  60 1.05  76 1.45
 
  LATTYP: Found a simple orthorhombic cell.
 ALAT       =     7.7573220383
 B/A-ratio  =     1.1153879045
 C/A-ratio  =     1.4801698182
  
  Lattice vectors:
  
 A1 = (   0.0000000000,  -7.7573220383,   0.0000000000)
 A2 = (  -8.6524231728,   0.0000000000,   0.0000000000)
 A3 = (   0.0000000000,   0.0000000000, -11.4821539516)


Analysis of symmetry for initial positions (statically):
=====================================================================
 Subroutine PRICEL returns:
 Original cell was already a primitive cell.
 

 Routine SETGRP: Setting up the symmetry group for a 
 simple orthorhombic supercell.


 Subroutine GETGRP returns: Found  4 space group operations
 (whereof  1 operations were pure point group operations)
 out of a pool of  8 trial point group operations.


The static configuration has the point symmetry C_1 .
 The point group associated with its full space group is C_2v.


Analysis of symmetry for dynamics (positions and initial velocities):
=====================================================================
 Subroutine PRICEL returns:
 Original cell was already a primitive cell.
 

 Routine SETGRP: Setting up the symmetry group for a 
 simple orthorhombic supercell.


 Subroutine GETGRP returns: Found  4 space group operations
 (whereof  1 operations were pure point group operations)
 out of a pool of  8 trial point group operations.


The dynamic configuration has the point symmetry C_1 .
 The point group associated with its full space group is C_2v.


Analysis of magnetic symmetry:
=====================================================================
 Subroutine PRICEL returns:
 Original cell was already a primitive cell.
 

 Subroutine MAGSYM returns: Found  4 space group operations
 (whereof  1 operations were pure point group operations)
 out of a pool of  4 trial space group operations
 (whereof  1 operations were pure point group operations)
 and found also     1 'primitive' translations


The magnetic configuration has the point symmetry C_1 .
 The point group associated with its full space group is C_2v.
 
 
 KPOINTS: Automatic mesh                          

Automatic generation of k-mesh.
Space group operators:
 irot       det(A)        alpha          n_x          n_y          n_z        tau_x        tau_y        tau_z
    1     1.000000     0.000000     1.000000     0.000000     0.000000     0.000000     0.000000     0.000000
    2     1.000000   180.000000     0.000000     0.000000     1.000000    -0.000000     0.000000    -0.500000
    3    -1.000000   180.000000     1.000000     0.000000     0.000000    -0.500000    -0.500000    -0.500000
    4    -1.000000   180.000000     0.000000     1.000000     0.000000    -0.500000    -0.500000     0.000000
 
 Subroutine IBZKPT returns following result:
 ===========================================
 
 Found      4 irreducible k-points:
 
 Following reciprocal coordinates:
            Coordinates               Weight
  0.125000  0.125000  0.250000      8.000000
  0.375000  0.125000  0.250000      8.000000
  0.125000  0.375000  0.250000      8.000000
  0.375000  0.375000  0.250000      8.000000
 
 Following cartesian coordinates:
            Coordinates               Weight
  0.014447  0.016114  0.021773      8.000000
  0.043340  0.016114  0.021773      8.000000
  0.014447  0.048341  0.021773      8.000000
  0.043340  0.048341  0.021773      8.000000
 
 
 Subroutine IBZKPT_HF returns following result:
 ==============================================
 
 Found     32 k-points in 1st BZ
 the following     32 k-points will be used (e.g. in the exchange kernel)
 Following reciprocal coordinates:   # in IRBZ
  0.125000  0.125000  0.250000    0.03125000   1 t-inv F
  0.375000  0.125000  0.250000    0.03125000   2 t-inv F
  0.125000  0.375000  0.250000    0.03125000   3 t-inv F
  0.375000  0.375000  0.250000    0.03125000   4 t-inv F
 -0.125000 -0.125000  0.250000    0.03125000   1 t-inv F
 -0.125000  0.125000  0.250000    0.03125000   1 t-inv F
  0.125000 -0.125000  0.250000    0.03125000   1 t-inv F
 -0.375000 -0.125000  0.250000    0.03125000   2 t-inv F
 -0.375000  0.125000  0.250000    0.03125000   2 t-inv F
  0.375000 -0.125000  0.250000    0.03125000   2 t-inv F
 -0.125000 -0.375000  0.250000    0.03125000   3 t-inv F
 -0.125000  0.375000  0.250000    0.03125000   3 t-inv F
  0.125000 -0.375000  0.250000    0.03125000   3 t-inv F
 -0.375000 -0.375000  0.250000    0.03125000   4 t-inv F
 -0.375000  0.375000  0.250000    0.03125000   4 t-inv F
  0.375000 -0.375000  0.250000    0.03125000   4 t-inv F
 -0.125000 -0.125000 -0.250000    0.03125000   1 t-inv T
  0.125000  0.125000 -0.250000    0.03125000   1 t-inv T
  0.125000 -0.125000 -0.250000    0.03125000   1 t-inv T
 -0.125000  0.125000 -0.250000    0.03125000   1 t-inv T
 -0.375000 -0.125000 -0.250000    0.03125000   2 t-inv T
  0.375000  0.125000 -0.250000    0.03125000   2 t-inv T
  0.375000 -0.125000 -0.250000    0.03125000   2 t-inv T
 -0.375000  0.125000 -0.250000    0.03125000   2 t-inv T
 -0.125000 -0.375000 -0.250000    0.03125000   3 t-inv T
  0.125000  0.375000 -0.250000    0.03125000   3 t-inv T
  0.125000 -0.375000 -0.250000    0.03125000   3 t-inv T
 -0.125000  0.375000 -0.250000    0.03125000   3 t-inv T
 -0.375000 -0.375000 -0.250000    0.03125000   4 t-inv T
  0.375000  0.375000 -0.250000    0.03125000   4 t-inv T
  0.375000 -0.375000 -0.250000    0.03125000   4 t-inv T
 -0.375000  0.375000 -0.250000    0.03125000   4 t-inv T


--------------------------------------------------------------------------------------------------------




 Dimension of arrays:
   k-points           NKPTS =      4   k-points in BZ     NKDIM =      4   number of bands    NBANDS=    240
   number of dos      NEDOS =   6000   number of ions     NIONS =     80
   non local maximal  LDIM  =      6   non local SUM 2l+1 LMDIM =     18
   total plane-waves  NPLWV = 560000
   max r-space proj   IRMAX =      1   max aug-charges    IRDMAX=   5462
   dimension x,y,z NGX =    80 NGY =   70 NGZ =  100
   dimension x,y,z NGXF=    96 NGYF=   90 NGZF=  126
   support grid    NGXF=    96 NGYF=   90 NGZF=  126
   ions per type =               4  24  12  32   8
 NGX,Y,Z   is equivalent  to a cutoff of  15.37, 15.00, 14.48 a.u.
 NGXF,Y,Z  is equivalent  to a cutoff of  18.45, 19.29, 18.24 a.u.


 I would recommend the setting:
   dimension x,y,z NGX =    75 NGY =   67 NGZ =   99
 SYSTEM =  Zn-MOF                                  
 POSCAR =  C3 H3 Co O6, H5 N2                      

 Startparameter for this run:
   NWRITE =      2    write-flag & timer
   PREC   = high      normal or accurate (medium, high low for compatibility)
   ISTART =      0    job   : 0-new  1-cont  2-samecut
   ICHARG =      1    charge: 1-file 2-atom 10-const
   ISPIN  =      2    spin polarized calculation?
   LNONCOLLINEAR =      F non collinear calculations
   LSORBIT =      F    spin-orbit coupling
   INIWAV =      1    electr: 0-lowe 1-rand  2-diag
   LASPH  =      F    aspherical Exc in radial PAW
   METAGGA=      F    non-selfconsistent MetaGGA calc.

 Electronic Relaxation 1
   ENCUT  =  700.0 eV  51.45 Ry    7.17 a.u.  18.67 16.73 24.77*2*pi/ulx,y,z
   ENINI  =  700.0     initial cutoff
   ENAUG  =  644.9 eV  augmentation charge cutoff
   NELM   =   2000;   NELMIN=  2; NELMDL= -3     # of ELM steps 
   EDIFF  = 0.1E-05   stopping-criterion for ELM
   LREAL  =      F    real-space projection
   NLSPLINE    = F    spline interpolate recip. space projectors
   LCOMPAT=      F    compatible to vasp.4.4
   GGA_COMPAT  = T    GGA compatible to vasp.4.4-vasp.4.6
   LMAXPAW     = -100 max onsite density
   LMAXMIX     =    2 max onsite mixed and CHGCAR
   VOSKOWN=      0    Vosko Wilk Nusair interpolation
   ROPT   =    0.00000   0.00000   0.00000   0.00000
   ROPT   =    0.00000
 Ionic relaxation
   EDIFFG = 0.1E-04   stopping-criterion for IOM
   NSW    =      0    number of steps for IOM
   NBLOCK =      1;   KBLOCK =      1    inner block; outer block 
   IBRION =     -1    ionic relax: 0-MD 1-quasi-New 2-CG
   NFREE  =      0    steps in history (QN), initial steepest desc. (CG)
   ISIF   =      2    stress and relaxation
   IWAVPR =     10    prediction:  0-non 1-charg 2-wave 3-comb
   ISYM   =      2    0-nonsym 1-usesym 2-fastsym
   LCORR  =      T    Harris-Foulkes like correction to forces

   POTIM  = 0.5000    time-step for ionic-motion
   TEIN   =    0.0    initial temperature
   TEBEG  =    0.0;   TEEND  =   0.0 temperature during run
   SMASS  =  -3.00    Nose mass-parameter (am)
   estimated Nose-frequenzy (Omega)   =  0.10E-29 period in steps =****** mass=  -0.171E-26a.u.
   SCALEE = 1.0000    scale energy and forces
   NPACO  =    256;   APACO  = 16.0  distance and # of slots for P.C.
   PSTRESS=    0.0 pullay stress

  Mass of Ions in am
   POMASS =  65.39 16.00 12.01  1.00 14.00
  Ionic Valenz
   ZVAL   =  12.00  6.00  4.00  1.00  5.00
  Atomic Wigner-Seitz radii
   RWIGS  =  -1.00 -1.00 -1.00 -1.00 -1.00
  virtual crystal weights 
   VCA    =   1.00  1.00  1.00  1.00  1.00
   NELECT =     312.0000    total number of electrons
   NUPDOWN=      -1.0000    fix difference up-down

 DOS related values:
   EMIN   =  10.00;   EMAX   =-10.00  energy-range for DOS
   EFERMI =   0.00
   ISMEAR =     0;   SIGMA  =   0.10  broadening in eV -4-tet -1-fermi 0-gaus

 Electronic relaxation 2 (details)
   IALGO  =     38    algorithm
   LDIAG  =      T    sub-space diagonalisation (order eigenvalues)
   LSUBROT=      F    optimize rotation matrix (better conditioning)
   TURBO    =      0    0=normal 1=particle mesh
   IRESTART =      0    0=no restart 2=restart with 2 vectors
   NREBOOT  =      0    no. of reboots
   NMIN     =      0    reboot dimension
   EREF     =   0.00    reference energy to select bands
   IMIX   =      4    mixing-type and parameters
     AMIX     =   0.40;   BMIX     =  1.00
     AMIX_MAG =   1.60;   BMIX_MAG =  1.00
     AMIN     =   0.10
     WC   =   100.;   INIMIX=   1;  MIXPRE=   1;  MAXMIX= -45

 Intra band minimization:
   WEIMIN = 0.0000     energy-eigenvalue tresh-hold
   EBREAK =  0.10E-08  absolut break condition
   DEPER  =   0.30     relativ break condition  

   TIME   =   0.40     timestep for ELM

  volume/ion in A,a.u.               =       9.63        65.01
  Fermi-wavevector in a.u.,A,eV,Ry     =   1.211069  2.288588 19.955488  1.466687
  Thomas-Fermi vector in A             =   2.346596
 
 Write flags
   LWAVE  =      F    write WAVECAR
   LCHARG =      T    write CHGCAR
   LVTOT  =      F    write LOCPOT, total local potential
   LVHAR  =      F    write LOCPOT, Hartree potential only
   LELF   =      F    write electronic localiz. function (ELF)
   LORBIT =     10    0 simple, 1 ext, 2 COOP (PROOUT)


 Dipole corrections
   LMONO  =      F    monopole corrections only (constant potential shift)
   LDIPOL =      F    correct potential (dipole corrections)
   IDIPOL =      0    1-x, 2-y, 3-z, 4-all directions 
   EPSILON=  1.0000000 bulk dielectric constant

 Exchange correlation treatment:
   GGA     =    --    GGA type
   LEXCH   =     8    internal setting for exchange type
   VOSKOWN=      0    Vosko Wilk Nusair interpolation
   LHFCALC =     F    Hartree Fock is set to
   LHFONE  =     F    Hartree Fock one center treatment
   AEXX    =    0.0000 exact exchange contribution

 Linear response parameters
   LEPSILON=     F    determine dielectric tensor
   LRPA    =     F    only Hartree local field effects (RPA)
   LNABLA  =     F    use nabla operator in PAW spheres
   LVEL    =     F    velocity operator in full k-point grid
   LINTERFAST=   F  fast interpolation
   KINTER  =     0    interpolate to denser k-point grid
   CSHIFT  =0.1000    complex shift for real part using Kramers Kronig
   OMEGAMAX=  -1.0    maximum frequency
   DEG_THRESHOLD= 0.2000000E-02 threshold for treating states as degnerate
   RTIME   =    0.100 relaxation time in fs

 Orbital magnetization related:
   ORBITALMAG=     F  switch on orbital magnetization
   LCHIMAG   =     F  perturbation theory with respect to B field
   DQ        =  0.001000  dq finite difference perturbation B field

 PEAD related settings:
   LPEAD      =     T    switch on PEAD
   IPEAD      =     4    finite difference order for dpsi/dk
   LCALCPOL   =     T    calculate macroscopic polarization
   LCALCEPS   =     F    calculate dielectric tensor
   EFIELD_PEAD=    0.0000    0.0000    0.0000
   SKIP_EDOTP =     F
   LRPA       =     F
   SKIP_SCF   =     F


--------------------------------------------------------------------------------------------------------


 Static calculation
 charge density and potential will be updated during run
 spin polarized calculation
 Variant of blocked Davidson
 Davidson routine will perform the subspace rotation
 perform sub-space diagonalisation
    after iterative eigenvector-optimisation
 modified Broyden-mixing scheme, WC =      100.0
 initial mixing is a Kerker type mixing with AMIX =  0.4000 and BMIX =      1.0000
 Hartree-type preconditioning will be used
 using additional bands           84
 reciprocal scheme for non local part
 use partial core corrections
 calculate Harris-corrections to forces 
   (improved forces if not selfconsistent)
 use gradient corrections 
 use of overlap-Matrix (Vanderbilt PP)
 Gauss-broadening in eV      SIGMA  =   0.10


--------------------------------------------------------------------------------------------------------


  energy-cutoff  :      700.00
  volume of cell :      770.68
      direct lattice vectors                 reciprocal lattice vectors
     8.652423173  0.000000000  0.000000000     0.115574560  0.000000000  0.000000000
     0.000000000  7.757322038  0.000000000     0.000000000  0.128910466  0.000000000
     0.000000000  0.000000000 11.482153952     0.000000000  0.000000000  0.087091673

  length of vectors
     8.652423173  7.757322038 11.482153952     0.115574560  0.128910466  0.087091673


 
 k-points in units of 2pi/SCALE and weight: Automatic mesh                          
   0.01444682  0.01611381  0.02177292       0.250
   0.04334046  0.01611381  0.02177292       0.250
   0.01444682  0.04834142  0.02177292       0.250
   0.04334046  0.04834142  0.02177292       0.250
 
 k-points in reciprocal lattice and weights: Automatic mesh                          
   0.12500000  0.12500000  0.25000000       0.250
   0.37500000  0.12500000  0.25000000       0.250
   0.12500000  0.37500000  0.25000000       0.250
   0.37500000  0.37500000  0.25000000       0.250
 
 position of ions in fractional coordinates (direct lattice) 
   0.53863746  0.49958883  0.51172840
   0.46136254  0.50041117  0.01172840
   0.03863745  0.00041120  0.51172840
   0.96136254  0.99958888  0.01172840
   0.56347510  0.64837108  0.66779752
   0.43652493  0.35162892  0.16779751
   0.06347502  0.85162889  0.66779752
   0.93652490  0.14837110  0.16779751
   0.50594483  0.64153612  0.85768922
   0.49405517  0.35846391  0.35768918
   0.00594491  0.85846391  0.85768922
   0.99405517  0.14153610  0.35768918
   0.44599554  0.73016760  0.43937510
   0.55400446  0.26983240  0.93937506
   0.94599554  0.76983243  0.43937510
   0.05400444  0.23016754  0.93937506
   0.25489532  0.92465050  0.43881629
   0.74510468  0.07534953  0.93881629
   0.75489532  0.57534953  0.43881629
   0.24510468  0.42465053  0.93881629
   0.31961112  0.42796629  0.58012558
   0.68038891  0.57203368  0.08012551
   0.81961109  0.07203369  0.58012558
   0.18038888  0.92796635  0.08012551
   0.12903250  0.23346250  0.58266733
   0.87096753  0.76653749  0.08266734
   0.62903247  0.26653752  0.58266733
   0.37096750  0.73346248  0.08266734
   0.53771651  0.56700648  0.76237925
   0.46228349  0.43299352  0.26237927
   0.03771655  0.93299355  0.76237925
   0.96228354  0.06700648  0.26237927
   0.32358280  0.79389889  0.48197897
   0.67641718  0.20610111  0.98197893
   0.82358282  0.70610107  0.48197897
   0.17641720  0.29389883  0.98197893
   0.26575154  0.28083306  0.55544371
   0.73424849  0.71916694  0.05544372
   0.76575151  0.21916693  0.55544371
   0.23424846  0.78083302  0.05544372
   0.54340996  0.42509060  0.76042630
   0.45659004  0.57490937  0.26042626
   0.04340991  0.07490939  0.76042630
   0.95659004  0.92509060  0.26042626
   0.27327406  0.73376169  0.56030810
   0.72672591  0.26623834  0.06030805
   0.77327409  0.76623834  0.56030810
   0.22672594  0.23376162  0.06030805
   0.33895774  0.18857443  0.50740611
   0.66104223  0.81142557  0.00740619
   0.83895777  0.31142557  0.50740611
   0.16104227  0.68857440  0.00740619
   0.07059562  0.41012574  0.67723717
   0.92940441  0.58987423  0.17723723
   0.57059564  0.08987424  0.67723717
   0.42940438  0.91012574  0.17723723
   0.06963987  0.62852267  0.70248625
   0.93036012  0.37147733  0.20248618
   0.56963988  0.87147736  0.70248625
   0.43036012  0.12852267  0.20248618
   0.14585956  0.48822555  0.80309110
   0.85414042  0.51177449  0.30309114
   0.64585958  0.01177447  0.80309110
   0.35414044  0.98822551  0.30309114
   0.91463262  0.39811036  0.85247063
   0.08536739  0.60188958  0.35247065
   0.41463260  0.10188962  0.85247063
   0.58536738  0.89811039  0.35247065
   0.89708554  0.60955454  0.83926245
   0.10291445  0.39044549  0.33926237
   0.39708554  0.89044549  0.83926245
   0.60291446  0.10955452  0.33926237
   0.90597742  0.49664246  0.79274865
   0.09402257  0.50335754  0.29274861
   0.40597744  0.00335754  0.79274865
   0.59402258  0.99664243  0.29274861
   0.05850088  0.50593876  0.74073213
   0.94149916  0.49406124  0.24073211
   0.55850089  0.99406121  0.74073213
   0.44149913  0.00593877  0.24073211
 
 position of ions in cartesian coordinates  (Angst):
   4.66051926  3.87547141  5.87574426
   3.99190392  3.88185062  0.13466733
   0.33430756  0.00318985  5.87574426
   8.31811550  7.75413285  0.13466733
   4.87542502  5.02962329  7.66775394
   3.77699839  2.72769875  1.92667684
   0.54921272  6.60635953  7.66775394
   8.10320974  1.15096239  1.92667684
   4.37764874  4.97660226  9.84811965
   4.27477443  2.78072002  4.10704220
   0.05143790  6.65938104  9.84811965
   8.60098601  1.09794112  4.10704220
   3.85894217  5.66414525  5.04497254
   4.79348101  2.09317679 10.78604904
   8.18515375  5.97183805  5.04497254
   0.46726930  1.78548375 10.78604904
   2.20546214  7.17281168  5.03855617
   6.44696103  0.58451053 10.77963314
   6.53167373  4.46317161  5.03855617
   2.12074945  3.29415091 10.77963314
   2.76541066  3.31987233  6.66109123
   5.88701276  4.43744947  0.92001349
   7.09162200  0.55878856  6.66109123
   1.56080093  7.19853383  0.92001349
   1.11644380  1.81104378  6.69027602
   7.53597961  5.94627813  0.94919910
   5.44265515  2.06761735  6.69027602
   3.20976778  5.68970469  0.94919910
   4.65255082  4.39845189  8.75375588
   3.99987236  3.35887015  3.01267915
   0.32633956  7.23753141  8.75375588
   8.32608442  0.51979081  3.01267915
   2.79977529  6.15852939  5.53415675
   5.85264764  1.59879264 11.27523324
   7.12598712  5.47745342  5.53415675
   1.52643630  2.27986789 11.27523324
   2.29939479  2.17851245  6.37769016
   6.35302862  5.57880959  0.63661330
   6.62560614  1.70014845  6.37769016
   2.02681679  6.05717323  0.63661330
   4.70181295  3.29756470  8.73133184
   3.95061023  4.45975711  2.99025439
   0.37560092  0.58109627  8.73133184
   8.27682181  7.17622571  2.99025439
   2.36448282  5.69202575  6.43354392
   6.28794012  2.06529652  0.69246629
   6.69069464  5.94395754  6.43354392
   1.96172877  1.81336414  0.69246629
   2.93280584  1.46283261  5.82611507
   5.71961710  6.29448943  0.08503899
   7.25901766  2.41582841  5.82611507
   1.39340587  5.34149339  0.08503899
   0.61082320  3.18147747  7.77614148
   8.04160027  4.57584433  2.03506522
   4.93703497  0.69718345  7.77614148
   3.71538844  7.06013849  2.03506522
   0.60255361  4.87565274  8.06605522
   8.04986945  2.88166930  2.32497753
   4.92876531  6.76033055  8.06605522
   3.72365786  0.99699172  2.32497753
   1.26203861  3.78732279  9.22121567
   7.39038432  3.96999949  3.48013916
   5.58825044  0.09133833  9.22121567
   3.06417298  7.66598356  3.48013916
   7.91378849  3.08827027  9.78819899
   0.73863479  4.66905129  4.04712225
   3.58757667  0.79039063  9.78819899
   5.06484627  6.96693153  4.04712225
   7.76196375  4.72851086  9.63654065
   0.89045937  3.02881142  3.89546272
   3.43575216  6.90747244  9.63654065
   5.21667101  0.84984972  3.89546272
   7.83889998  3.85261554  9.10246203
   0.81352308  3.90470650  3.36138458
   3.51268863  0.02604555  9.10246203
   5.13973478  7.73127632  3.36138458
   0.50617437  3.92472990  8.50520033
   8.14624916  3.83259213  2.76412312
   4.83238608  7.71125291  8.50520033
   3.82003733  0.04606899  2.76412312
 


--------------------------------------------------------------------------------------------------------


 k-point  1 :   0.1250 0.1250 0.2500  plane waves:   32401
 k-point  2 :   0.3750 0.1250 0.2500  plane waves:   32416
 k-point  3 :   0.1250 0.3750 0.2500  plane waves:   32434
 k-point  4 :   0.3750 0.3750 0.2500  plane waves:   32376

 maximum and minimum number of plane-waves per node :     32434    32376

 maximum number of plane-waves:     32434
 maximum index in each direction: 
   IXMAX=   18   IYMAX=   16   IZMAX=   24
   IXMIN=  -19   IYMIN=  -17   IZMIN=  -25

 NGX is ok and might be reduce to  76
 NGY is ok and might be reduce to  68
 NGZ is ok and might be reduce to 100

 serial   3D FFT for wavefunctions
 parallel 3D FFT for charge:
    minimum data exchange during FFTs selected (reduces bandwidth)


 total amount of memory used by VASP on root node   239196. kBytes
========================================================================

   base      :      30000. kBytes
   nonl-proj :     134983. kBytes
   fftplans  :       3190. kBytes
   grid      :      47369. kBytes
   one-center:       2488. kBytes
   wavefun   :      21166. kBytes
 
     INWAV:  cpu time    0.0000: real time    0.0000
 Broyden mixing: mesh for mixing (old mesh)
   NGX = 37   NGY = 33   NGZ = 49
  (NGX  = 96   NGY  = 90   NGZ  =126)
  gives a total of  59829 points

 initial charge density was supplied:
 charge density of overlapping atoms calculated
 number of electron     312.0000000 magnetization      80.0000000
 keeping initial charge density in first step


--------------------------------------------------------------------------------------------------------


 Maximum index for augmentation-charges          322 (set IRDMAX)


--------------------------------------------------------------------------------------------------------


 First call to EWALD:  gamma=   0.193
 Maximum number of real-space cells 3x 3x 2
 Maximum number of reciprocal cells 3x 2x 3

 FEWALD executed in parallel
    FEWALD:  cpu time    0.0024: real time    0.0024


----------------------------------------- Iteration    1(   1)  ---------------------------------------


    POTLOK:  cpu time    0.0940: real time    0.1227
    SETDIJ:  cpu time    0.0121: real time    0.0162
     EDDAV:  cpu time   10.9524: real time   11.4757
       DOS:  cpu time    0.0029: real time    0.0040
    --------------------------------------------
      LOOP:  cpu time   11.0632: real time   11.6354

 eigenvalue-minimisations  :  3840
 total energy-change (2. order) : 0.2797114E+04  (-0.1785957E+05)
 number of electron     312.0000000 magnetization      80.0000000
 augmentation part      312.0000000 magnetization      80.0000000

 Free energy of the ion-electron system (eV)
  ---------------------------------------------------
  alpha Z        PSCENC =       638.80395546
  Ewald energy   TEWEN  =    -10713.63494855
  -Hartree energ DENC   =     -9431.87898257
  -exchange      EXHF   =         0.00000000
  -V(xc)+E(xc)   XCENC  =      1317.89847882
  PAW double counting   =     13085.90498890   -13865.29923181
  entropy T*S    EENTRO =        -0.05028587
  eigenvalues    EBANDS =       111.36740869
  atomic energy  EATOM  =     21654.00304829
  Solvation  Ediel_sol  =         0.00000000
  ---------------------------------------------------
  free energy    TOTEN  =      2797.11443137 eV

  energy without entropy =     2797.16471724  energy(sigma->0) =     2797.13957430


--------------------------------------------------------------------------------------------------------




----------------------------------------- Iteration    1(   2)  ---------------------------------------


     EDDAV:  cpu time   11.7018: real time   11.7308
       DOS:  cpu time    0.0029: real time    0.0029
    --------------------------------------------
      LOOP:  cpu time   11.7054: real time   11.7480

 eigenvalue-minimisations  :  4224
 total energy-change (2. order) :-0.2905990E+04  (-0.2694797E+04)
 number of electron     312.0000000 magnetization      80.0000000
 augmentation part      312.0000000 magnetization      80.0000000

 Free energy of the ion-electron system (eV)
  ---------------------------------------------------
  alpha Z        PSCENC =       638.80395546
  Ewald energy   TEWEN  =    -10713.63494855
  -Hartree energ DENC   =     -9431.87898257
  -exchange      EXHF   =         0.00000000
  -V(xc)+E(xc)   XCENC  =      1317.89847882
  PAW double counting   =     13085.90498890   -13865.29923181
  entropy T*S    EENTRO =        -0.00000000
  eigenvalues    EBANDS =     -2794.67307092
  atomic energy  EATOM  =     21654.00304829
  Solvation  Ediel_sol  =         0.00000000
  ---------------------------------------------------
  free energy    TOTEN  =      -108.87576237 eV

  energy without entropy =     -108.87576237  energy(sigma->0) =     -108.87576237


--------------------------------------------------------------------------------------------------------




----------------------------------------- Iteration    1(   3)  ---------------------------------------


     EDDAV:  cpu time   12.4761: real time   12.5069
       DOS:  cpu time    0.0027: real time    0.0027
    CHARGE:  cpu time    0.4723: real time    0.4772
    MIXING:  cpu time    0.0016: real time    0.0036
    --------------------------------------------
      LOOP:  cpu time   12.9534: real time   13.0028

 eigenvalue-minimisations  :  4560
 total energy-change (2. order) :-0.3152821E+03  (-0.3116954E+03)
 number of electron     311.9999837 magnetization      50.5038043
 augmentation part       54.6320975 magnetization      50.6062317

 Broyden mixing:
  rms(total) = 0.65651E+01    rms(broyden)= 0.65649E+01
  rms(prec ) = 0.70632E+01
  weight for this iteration     100.00

 Free energy of the ion-electron system (eV)
  ---------------------------------------------------
  alpha Z        PSCENC =       638.80395546
  Ewald energy   TEWEN  =    -10713.63494855
  -Hartree energ DENC   =     -9431.87898257
  -exchange      EXHF   =         0.00000000
  -V(xc)+E(xc)   XCENC  =      1317.89847882
  PAW double counting   =     13085.90498890   -13865.29923181
  entropy T*S    EENTRO =        -0.00000000
  eigenvalues    EBANDS =     -3109.95513529
  atomic energy  EATOM  =     21654.00304829
  Solvation  Ediel_sol  =         0.00000000
  ---------------------------------------------------
  free energy    TOTEN  =      -424.15782675 eV

  energy without entropy =     -424.15782675  energy(sigma->0) =     -424.15782675


--------------------------------------------------------------------------------------------------------




----------------------------------------- Iteration    1(   4)  ---------------------------------------


    POTLOK:  cpu time    0.0532: real time    0.0533
    SETDIJ:  cpu time    0.0109: real time    0.0110
     EDDAV:  cpu time   14.3249: real time   14.3603
       DOS:  cpu time    0.0027: real time    0.0027
    CHARGE:  cpu time    0.4643: real time    0.4655
    MIXING:  cpu time    0.0012: real time    0.0603
    --------------------------------------------
      LOOP:  cpu time   14.8580: real time   14.9660

 eigenvalue-minimisations  :  5376
 total energy-change (2. order) : 0.1641380E+03  (-0.4469445E+02)
 number of electron     311.9999849 magnetization      30.6755206
 augmentation part       53.1434985 magnetization      28.6087393

 Broyden mixing:
  rms(total) = 0.29404E+01    rms(broyden)= 0.29403E+01
  rms(prec ) = 0.32040E+01
  weight for this iteration     100.00

 eigenvalues of (default mixing * dielectric matrix)
  average eigenvalue GAMMA=   0.9146
  0.9146

 Free energy of the ion-electron system (eV)
  ---------------------------------------------------
  alpha Z        PSCENC =       638.80395546
  Ewald energy   TEWEN  =    -10713.63494855
  -Hartree energ DENC   =     -9867.43727895
  -exchange      EXHF   =         0.00000000
  -V(xc)+E(xc)   XCENC  =      1454.59453603
  PAW double counting   =     14510.32964032   -15298.33063563
  entropy T*S    EENTRO =        -0.00000000
  eigenvalues    EBANDS =     -2638.34811226
  atomic energy  EATOM  =     21654.00304829
  Solvation  Ediel_sol  =         0.00000000
  ---------------------------------------------------
  free energy    TOTEN  =      -260.01979528 eV

  energy without entropy =     -260.01979528  energy(sigma->0) =     -260.01979528


--------------------------------------------------------------------------------------------------------




----------------------------------------- Iteration    1(   5)  ---------------------------------------


    POTLOK:  cpu time    0.0528: real time    0.0529
    SETDIJ:  cpu time    0.0110: real time    0.0114
     EDDAV:  cpu time   12.6544: real time   12.6857
       DOS:  cpu time    0.0028: real time    0.0028
    CHARGE:  cpu time    0.4581: real time    0.4592
    MIXING:  cpu time    0.0011: real time    0.0011
    --------------------------------------------
      LOOP:  cpu time   13.1810: real time   13.2236

 eigenvalue-minimisations  :  4608
 total energy-change (2. order) :-0.1167512E+03  (-0.1124093E+02)
 number of electron     311.9999854 magnetization      17.8426285
 augmentation part       51.6814499 magnetization      16.3373534

 Broyden mixing:
  rms(total) = 0.17091E+01    rms(broyden)= 0.17090E+01
  rms(prec ) = 0.18172E+01
  weight for this iteration     100.00

 eigenvalues of (default mixing * dielectric matrix)
  average eigenvalue GAMMA=   0.9452
  1.0582  0.8322

 Free energy of the ion-electron system (eV)
  ---------------------------------------------------
  alpha Z        PSCENC =       638.80395546
  Ewald energy   TEWEN  =    -10713.63494855
  -Hartree energ DENC   =    -10095.39067953
  -exchange      EXHF   =         0.00000000
  -V(xc)+E(xc)   XCENC  =      1391.17368218
  PAW double counting   =     15324.72381203   -16122.89480773
  entropy T*S    EENTRO =        -0.00000000
  eigenvalues    EBANDS =     -2453.55508674
  atomic energy  EATOM  =     21654.00304829
  Solvation  Ediel_sol  =         0.00000000
  ---------------------------------------------------
  free energy    TOTEN  =      -376.77102459 eV

  energy without entropy =     -376.77102459  energy(sigma->0) =     -376.77102459


--------------------------------------------------------------------------------------------------------




----------------------------------------- Iteration    1(   6)  ---------------------------------------


    POTLOK:  cpu time    0.0527: real time    0.0529
    SETDIJ:  cpu time    0.0110: real time    0.0110
     EDDAV:  cpu time   13.1589: real time   13.1912
       DOS:  cpu time    0.0028: real time    0.0028
    CHARGE:  cpu time    0.4545: real time    0.4556
    MIXING:  cpu time    0.0011: real time    0.0011
    --------------------------------------------
      LOOP:  cpu time   13.6819: real time   13.7279

 eigenvalue-minimisations  :  4848
 total energy-change (2. order) :-0.3811462E+02  (-0.2272019E+01)
 number of electron     311.9999854 magnetization       7.1101605
 augmentation part       51.7709765 magnetization       6.0895293

 Broyden mixing:
  rms(total) = 0.98108E+00    rms(broyden)= 0.98107E+00
  rms(prec ) = 0.10305E+01
  weight for this iteration     100.00

 eigenvalues of (default mixing * dielectric matrix)
  average eigenvalue GAMMA=   1.1289
  1.6400  1.0927  0.6542

 Free energy of the ion-electron system (eV)
  ---------------------------------------------------
  alpha Z        PSCENC =       638.80395546
  Ewald energy   TEWEN  =    -10713.63494855
  -Hartree energ DENC   =    -10126.55968648
  -exchange      EXHF   =         0.00000000
  -V(xc)+E(xc)   XCENC  =      1371.96591846
  PAW double counting   =     15637.61808572   -16431.37262710
  entropy T*S    EENTRO =        -0.00000000
  eigenvalues    EBANDS =     -2445.70939390
  atomic energy  EATOM  =     21654.00304829
  Solvation  Ediel_sol  =         0.00000000
  ---------------------------------------------------
  free energy    TOTEN  =      -414.88564810 eV

  energy without entropy =     -414.88564810  energy(sigma->0) =     -414.88564810


--------------------------------------------------------------------------------------------------------




----------------------------------------- Iteration    1(   7)  ---------------------------------------


    POTLOK:  cpu time    0.0510: real time    0.0511
    SETDIJ:  cpu time    0.0109: real time    0.0109
     EDDAV:  cpu time   12.9776: real time   13.0094
       DOS:  cpu time    0.0028: real time    0.0028
    CHARGE:  cpu time    0.4564: real time    0.4575
    MIXING:  cpu time    0.0012: real time    0.0012
    --------------------------------------------
      LOOP:  cpu time   13.5009: real time   13.5483

 eigenvalue-minimisations  :  4752
 total energy-change (2. order) :-0.4099138E+02  (-0.3954626E+01)
 number of electron     311.9999853 magnetization       3.4333829
 augmentation part       51.6590323 magnetization       2.9884031

 Broyden mixing:
  rms(total) = 0.43942E+00    rms(broyden)= 0.43939E+00
  rms(prec ) = 0.47053E+00
  weight for this iteration     100.00

 eigenvalues of (default mixing * dielectric matrix)
  average eigenvalue GAMMA=   1.2323
  2.0623  1.4477  0.7095  0.7095

 Free energy of the ion-electron system (eV)
  ---------------------------------------------------
  alpha Z        PSCENC =       638.80395546
  Ewald energy   TEWEN  =    -10713.63494855
  -Hartree energ DENC   =    -10132.30367357
  -exchange      EXHF   =         0.00000000
  -V(xc)+E(xc)   XCENC  =      1351.72854415
  PAW double counting   =     15832.47478244   -16622.87652936
  entropy T*S    EENTRO =        -0.00000000
  eigenvalues    EBANDS =     -2464.07220854
  atomic energy  EATOM  =     21654.00304829
  Solvation  Ediel_sol  =         0.00000000
  ---------------------------------------------------
  free energy    TOTEN  =      -455.87702968 eV

  energy without entropy =     -455.87702968  energy(sigma->0) =     -455.87702968


--------------------------------------------------------------------------------------------------------




----------------------------------------- Iteration    1(   8)  ---------------------------------------


    POTLOK:  cpu time    0.0528: real time    0.0529
    SETDIJ:  cpu time    0.0109: real time    0.0110
     EDDAV:  cpu time   13.2233: real time   13.2558
       DOS:  cpu time    0.0029: real time    0.0029
    CHARGE:  cpu time    0.4571: real time    0.4582
    MIXING:  cpu time    0.0013: real time    0.0013
    --------------------------------------------
      LOOP:  cpu time   13.7491: real time   13.7955

 eigenvalue-minimisations  :  4848
 total energy-change (2. order) :-0.1104675E+02  (-0.1367444E+01)
 number of electron     311.9999852 magnetization       1.8709964
 augmentation part       51.6073212 magnetization       1.7490778

 Broyden mixing:
  rms(total) = 0.23181E+00    rms(broyden)= 0.23178E+00
  rms(prec ) = 0.26460E+00
  weight for this iteration     100.00

 eigenvalues of (default mixing * dielectric matrix)
  average eigenvalue GAMMA=   1.2405
  1.9163  1.9163  0.8715  0.8715  0.6270

 Free energy of the ion-electron system (eV)
  ---------------------------------------------------
  alpha Z        PSCENC =       638.80395546
  Ewald energy   TEWEN  =    -10713.63494855
  -Hartree energ DENC   =    -10107.86356140
  -exchange      EXHF   =         0.00000000
  -V(xc)+E(xc)   XCENC  =      1346.27716512
  PAW double counting   =     15827.87235639   -16616.68717518
  entropy T*S    EENTRO =        -0.00000000
  eigenvalues    EBANDS =     -2495.69461632
  atomic energy  EATOM  =     21654.00304829
  Solvation  Ediel_sol  =         0.00000000
  ---------------------------------------------------
  free energy    TOTEN  =      -466.92377618 eV

  energy without entropy =     -466.92377618  energy(sigma->0) =     -466.92377618


--------------------------------------------------------------------------------------------------------




----------------------------------------- Iteration    1(   9)  ---------------------------------------


    POTLOK:  cpu time    0.0534: real time    0.0535
    SETDIJ:  cpu time    0.0109: real time    0.0110
     EDDAV:  cpu time   12.2687: real time   12.2988
       DOS:  cpu time    0.0029: real time    0.0029
    CHARGE:  cpu time    0.4583: real time    0.4594
    MIXING:  cpu time    0.0013: real time    0.0013
    --------------------------------------------
      LOOP:  cpu time   12.7964: real time   12.8399

 eigenvalue-minimisations  :  4368
 total energy-change (2. order) :-0.1309822E+01  (-0.2549940E+00)
 number of electron     311.9999851 magnetization       0.6484105
 augmentation part       51.6544370 magnetization       0.6184164

 Broyden mixing:
  rms(total) = 0.10665E+00    rms(broyden)= 0.10663E+00
  rms(prec ) = 0.12049E+00
  weight for this iteration     100.00

 eigenvalues of (default mixing * dielectric matrix)
  average eigenvalue GAMMA=   1.2242
  2.3412  1.4124  1.4124  0.7710  0.7710  0.6370

 Free energy of the ion-electron system (eV)
  ---------------------------------------------------
  alpha Z        PSCENC =       638.80395546
  Ewald energy   TEWEN  =    -10713.63494855
  -Hartree energ DENC   =    -10075.73966695
  -exchange      EXHF   =         0.00000000
  -V(xc)+E(xc)   XCENC  =      1343.92754871
  PAW double counting   =     15778.25974051   -16566.60542273
  entropy T*S    EENTRO =        -0.00000000
  eigenvalues    EBANDS =     -2527.24785289
  atomic energy  EATOM  =     21654.00304829
  Solvation  Ediel_sol  =         0.00000000
  ---------------------------------------------------
  free energy    TOTEN  =      -468.23359815 eV

  energy without entropy =     -468.23359815  energy(sigma->0) =     -468.23359815


--------------------------------------------------------------------------------------------------------




----------------------------------------- Iteration    1(  10)  ---------------------------------------


    POTLOK:  cpu time    0.0519: real time    0.0521
    SETDIJ:  cpu time    0.0110: real time    0.0111
     EDDAV:  cpu time   12.5859: real time   12.6167
       DOS:  cpu time    0.0029: real time    0.0029
    CHARGE:  cpu time    0.4560: real time    0.4572
    MIXING:  cpu time    0.0014: real time    0.0014
    --------------------------------------------
      LOOP:  cpu time   13.1100: real time   13.1560

 eigenvalue-minimisations  :  4560
 total energy-change (2. order) :-0.6233796E-03  (-0.1876430E-01)
 number of electron     311.9999852 magnetization       0.1286309
 augmentation part       51.6701064 magnetization       0.1133668

 Broyden mixing:
  rms(total) = 0.52596E-01    rms(broyden)= 0.52593E-01
  rms(prec ) = 0.62072E-01
  weight for this iteration     100.00

 eigenvalues of (default mixing * dielectric matrix)
  average eigenvalue GAMMA=   1.2678
  2.5243  1.6397  1.6397  0.8591  0.8591  0.7285  0.6246

 Free energy of the ion-electron system (eV)
  ---------------------------------------------------
  alpha Z        PSCENC =       638.80395546
  Ewald energy   TEWEN  =    -10713.63494855
  -Hartree energ DENC   =    -10070.07238505
  -exchange      EXHF   =         0.00000000
  -V(xc)+E(xc)   XCENC  =      1343.70377763
  PAW double counting   =     15787.95437618   -16576.54358637
  entropy T*S    EENTRO =        -0.00000000
  eigenvalues    EBANDS =     -2532.44845913
  atomic energy  EATOM  =     21654.00304829
  Solvation  Ediel_sol  =         0.00000000
  ---------------------------------------------------
  free energy    TOTEN  =      -468.23422153 eV

  energy without entropy =     -468.23422153  energy(sigma->0) =     -468.23422153


--------------------------------------------------------------------------------------------------------




----------------------------------------- Iteration    1(  11)  ---------------------------------------


    POTLOK:  cpu time    0.0511: real time    0.0512
    SETDIJ:  cpu time    0.0109: real time    0.0109
     EDDAV:  cpu time   12.6746: real time   12.7057
       DOS:  cpu time    0.0029: real time    0.0029
    CHARGE:  cpu time    0.4551: real time    0.4562
    MIXING:  cpu time    0.0014: real time    0.0014
    --------------------------------------------
      LOOP:  cpu time   13.1968: real time   13.2422

 eigenvalue-minimisations  :  4608
 total energy-change (2. order) : 0.1310475E-01  (-0.3105526E-02)
 number of electron     311.9999852 magnetization       0.0457785
 augmentation part       51.6573333 magnetization       0.0390924

 Broyden mixing:
  rms(total) = 0.21970E-01    rms(broyden)= 0.21969E-01
  rms(prec ) = 0.27497E-01
  weight for this iteration     100.00

 eigenvalues of (default mixing * dielectric matrix)
  average eigenvalue GAMMA=   1.2695
  2.5896  1.7757  1.7757  1.0237  0.8370  0.8370  0.6210  0.6962

 Free energy of the ion-electron system (eV)
  ---------------------------------------------------
  alpha Z        PSCENC =       638.80395546
  Ewald energy   TEWEN  =    -10713.63494855
  -Hartree energ DENC   =    -10066.66169916
  -exchange      EXHF   =         0.00000000
  -V(xc)+E(xc)   XCENC  =      1343.55776008
  PAW double counting   =     15792.85952660   -16582.06611748
  entropy T*S    EENTRO =        -0.00000000
  eigenvalues    EBANDS =     -2535.08264202
  atomic energy  EATOM  =     21654.00304829
  Solvation  Ediel_sol  =         0.00000000
  ---------------------------------------------------
  free energy    TOTEN  =      -468.22111678 eV

  energy without entropy =     -468.22111678  energy(sigma->0) =     -468.22111678


--------------------------------------------------------------------------------------------------------




----------------------------------------- Iteration    1(  12)  ---------------------------------------


    POTLOK:  cpu time    0.0514: real time    0.0515
    SETDIJ:  cpu time    0.0109: real time    0.0109
     EDDAV:  cpu time   12.6741: real time   12.7051
       DOS:  cpu time    0.0032: real time    0.0032
    CHARGE:  cpu time    0.4734: real time    0.4746
    MIXING:  cpu time    0.0019: real time    0.0019
    --------------------------------------------
      LOOP:  cpu time   13.2157: real time   13.2603

 eigenvalue-minimisations  :  4608
 total energy-change (2. order) : 0.3034099E-02  (-0.7610426E-03)
 number of electron     311.9999852 magnetization       0.0122384
 augmentation part       51.6579488 magnetization       0.0098957

 Broyden mixing:
  rms(total) = 0.80994E-02    rms(broyden)= 0.80989E-02
  rms(prec ) = 0.10300E-01
  weight for this iteration     100.00

 eigenvalues of (default mixing * dielectric matrix)
  average eigenvalue GAMMA=   1.2510
  2.6300  1.8061  1.8061  1.1652  0.8776  0.8776  0.8096  0.6300  0.6568

 Free energy of the ion-electron system (eV)
  ---------------------------------------------------
  alpha Z        PSCENC =       638.80395546
  Ewald energy   TEWEN  =    -10713.63494855
  -Hartree energ DENC   =    -10063.03510312
  -exchange      EXHF   =         0.00000000
  -V(xc)+E(xc)   XCENC  =      1343.36040560
  PAW double counting   =     15789.55362325   -16578.82208431
  entropy T*S    EENTRO =        -0.00000000
  eigenvalues    EBANDS =     -2538.44697930
  atomic energy  EATOM  =     21654.00304829
  Solvation  Ediel_sol  =         0.00000000
  ---------------------------------------------------
  free energy    TOTEN  =      -468.21808268 eV

  energy without entropy =     -468.21808268  energy(sigma->0) =     -468.21808268


--------------------------------------------------------------------------------------------------------




----------------------------------------- Iteration    1(  13)  ---------------------------------------


    POTLOK:  cpu time    0.0531: real time    0.0532
    SETDIJ:  cpu time    0.0112: real time    0.0112
     EDDAV:  cpu time   12.6790: real time   12.7103
       DOS:  cpu time    0.0032: real time    0.0032
    CHARGE:  cpu time    0.4561: real time    0.4572
    MIXING:  cpu time    0.0017: real time    0.0017
    --------------------------------------------
      LOOP:  cpu time   13.2051: real time   13.2515

 eigenvalue-minimisations  :  4608
 total energy-change (2. order) : 0.1387679E-03  (-0.2066147E-03)
 number of electron     311.9999852 magnetization      -0.0033465
 augmentation part       51.6592829 magnetization      -0.0038062

 Broyden mixing:
  rms(total) = 0.42605E-02    rms(broyden)= 0.42603E-02
  rms(prec ) = 0.51707E-02
  weight for this iteration     100.00

 eigenvalues of (default mixing * dielectric matrix)
  average eigenvalue GAMMA=   1.2627
  2.6947  1.8995  1.8995  1.3449  1.0430  0.8778  0.8778  0.7342  0.6278  0.6278

 Free energy of the ion-electron system (eV)
  ---------------------------------------------------
  alpha Z        PSCENC =       638.80395546
  Ewald energy   TEWEN  =    -10713.63494855
  -Hartree energ DENC   =    -10061.64382049
  -exchange      EXHF   =         0.00000000
  -V(xc)+E(xc)   XCENC  =      1343.29130595
  PAW double counting   =     15789.51446456   -16578.77519410
  entropy T*S    EENTRO =        -0.00000000
  eigenvalues    EBANDS =     -2539.77675504
  atomic energy  EATOM  =     21654.00304829
  Solvation  Ediel_sol  =         0.00000000
  ---------------------------------------------------
  free energy    TOTEN  =      -468.21794391 eV

  energy without entropy =     -468.21794391  energy(sigma->0) =     -468.21794391


--------------------------------------------------------------------------------------------------------




----------------------------------------- Iteration    1(  14)  ---------------------------------------


    POTLOK:  cpu time    0.0511: real time    0.0512
    SETDIJ:  cpu time    0.0110: real time    0.0110
     EDDAV:  cpu time   12.6978: real time   12.7289
       DOS:  cpu time    0.0030: real time    0.0030
    CHARGE:  cpu time    0.4539: real time    0.4550
    MIXING:  cpu time    0.0018: real time    0.0018
    --------------------------------------------
      LOOP:  cpu time   13.2193: real time   13.2646

 eigenvalue-minimisations  :  4608
 total energy-change (2. order) : 0.4396112E-03  (-0.6695050E-04)
 number of electron     311.9999852 magnetization      -0.0037576
 augmentation part       51.6599109 magnetization      -0.0037016

 Broyden mixing:
  rms(total) = 0.19257E-02    rms(broyden)= 0.19256E-02
  rms(prec ) = 0.23680E-02
  weight for this iteration     100.00

 eigenvalues of (default mixing * dielectric matrix)
  average eigenvalue GAMMA=   1.2699
  2.7422  1.9844  1.9844  1.5518  0.9974  0.9974  0.8627  0.8627  0.7156  0.6563
  0.6138

 Free energy of the ion-electron system (eV)
  ---------------------------------------------------
  alpha Z        PSCENC =       638.80395546
  Ewald energy   TEWEN  =    -10713.63494855
  -Hartree energ DENC   =    -10061.15283578
  -exchange      EXHF   =         0.00000000
  -V(xc)+E(xc)   XCENC  =      1343.27080497
  PAW double counting   =     15790.50052705   -16579.77605154
  entropy T*S    EENTRO =        -0.00000000
  eigenvalues    EBANDS =     -2540.23200421
  atomic energy  EATOM  =     21654.00304829
  Solvation  Ediel_sol  =         0.00000000
  ---------------------------------------------------
  free energy    TOTEN  =      -468.21750430 eV

  energy without entropy =     -468.21750430  energy(sigma->0) =     -468.21750430


--------------------------------------------------------------------------------------------------------




----------------------------------------- Iteration    1(  15)  ---------------------------------------


    POTLOK:  cpu time    0.0505: real time    0.0507
    SETDIJ:  cpu time    0.0109: real time    0.0110
     EDDAV:  cpu time   12.7381: real time   12.7693
       DOS:  cpu time    0.0029: real time    0.0029
    CHARGE:  cpu time    0.4537: real time    0.4549
    MIXING:  cpu time    0.0018: real time    0.0018
    --------------------------------------------
      LOOP:  cpu time   13.2589: real time   13.3051

 eigenvalue-minimisations  :  4608
 total energy-change (2. order) :-0.1036849E-05  (-0.1192382E-04)
 number of electron     311.9999852 magnetization      -0.0024201
 augmentation part       51.6597685 magnetization      -0.0023262

 Broyden mixing:
  rms(total) = 0.82110E-03    rms(broyden)= 0.82107E-03
  rms(prec ) = 0.97090E-03
  weight for this iteration     100.00

 eigenvalues of (default mixing * dielectric matrix)
  average eigenvalue GAMMA=   1.2946
  2.8402  2.3923  1.8296  1.8296  1.0581  1.0581  0.8919  0.8919  0.7971  0.7004
  0.6288  0.6168

 Free energy of the ion-electron system (eV)
  ---------------------------------------------------
  alpha Z        PSCENC =       638.80395546
  Ewald energy   TEWEN  =    -10713.63494855
  -Hartree energ DENC   =    -10060.99281514
  -exchange      EXHF   =         0.00000000
  -V(xc)+E(xc)   XCENC  =      1343.26490944
  PAW double counting   =     15791.16570845   -16580.46126208
  entropy T*S    EENTRO =        -0.00000000
  eigenvalues    EBANDS =     -2540.36610121
  atomic energy  EATOM  =     21654.00304829
  Solvation  Ediel_sol  =         0.00000000
  ---------------------------------------------------
  free energy    TOTEN  =      -468.21750534 eV

  energy without entropy =     -468.21750534  energy(sigma->0) =     -468.21750534


--------------------------------------------------------------------------------------------------------




----------------------------------------- Iteration    1(  16)  ---------------------------------------


    POTLOK:  cpu time    0.0513: real time    0.0514
    SETDIJ:  cpu time    0.0109: real time    0.0109
     EDDAV:  cpu time   12.6870: real time   12.7180
       DOS:  cpu time    0.0029: real time    0.0029
    CHARGE:  cpu time    0.4547: real time    0.4558
    MIXING:  cpu time    0.0019: real time    0.0019
    --------------------------------------------
      LOOP:  cpu time   13.2094: real time   13.2554

 eigenvalue-minimisations  :  4608
 total energy-change (2. order) : 0.1350951E-04  (-0.3984014E-05)
 number of electron     311.9999852 magnetization      -0.0014750
 augmentation part       51.6598836 magnetization      -0.0014172

 Broyden mixing:
  rms(total) = 0.41497E-03    rms(broyden)= 0.41493E-03
  rms(prec ) = 0.49458E-03
  weight for this iteration     100.00

 eigenvalues of (default mixing * dielectric matrix)
  average eigenvalue GAMMA=   1.2762
  2.8741  2.4804  1.8278  1.8278  1.2387  0.9564  0.9564  0.8681  0.8681  0.7735
  0.6797  0.6274  0.6122

 Free energy of the ion-electron system (eV)
  ---------------------------------------------------
  alpha Z        PSCENC =       638.80395546
  Ewald energy   TEWEN  =    -10713.63494855
  -Hartree energ DENC   =    -10060.91307635
  -exchange      EXHF   =         0.00000000
  -V(xc)+E(xc)   XCENC  =      1343.26139723
  PAW double counting   =     15791.37833529   -16580.67435978
  entropy T*S    EENTRO =        -0.00000000
  eigenvalues    EBANDS =     -2540.44184343
  atomic energy  EATOM  =     21654.00304829
  Solvation  Ediel_sol  =         0.00000000
  ---------------------------------------------------
  free energy    TOTEN  =      -468.21749183 eV

  energy without entropy =     -468.21749183  energy(sigma->0) =     -468.21749183


--------------------------------------------------------------------------------------------------------




----------------------------------------- Iteration    1(  17)  ---------------------------------------


    POTLOK:  cpu time    0.0504: real time    0.0506
    SETDIJ:  cpu time    0.0109: real time    0.0109
     EDDAV:  cpu time   12.6610: real time   12.6920
       DOS:  cpu time    0.0029: real time    0.0029
    CHARGE:  cpu time    0.4534: real time    0.4545
    MIXING:  cpu time    0.0021: real time    0.0021
    --------------------------------------------
      LOOP:  cpu time   13.1817: real time   13.2713

 eigenvalue-minimisations  :  4608
 total energy-change (2. order) : 0.3499143E-05  (-0.6466000E-06)
 number of electron     311.9999852 magnetization      -0.0001007
 augmentation part       51.6598179 magnetization      -0.0000805

 Broyden mixing:
  rms(total) = 0.22432E-03    rms(broyden)= 0.22430E-03
  rms(prec ) = 0.27354E-03
  weight for this iteration     100.00

 eigenvalues of (default mixing * dielectric matrix)
  average eigenvalue GAMMA=   1.2958
  2.8875  2.6180  1.8082  1.8082  1.5676  1.0470  1.0470  0.9807  0.8621  0.8621
  0.7480  0.6725  0.6203  0.6123

 Free energy of the ion-electron system (eV)
  ---------------------------------------------------
  alpha Z        PSCENC =       638.80395546
  Ewald energy   TEWEN  =    -10713.63494855
  -Hartree energ DENC   =    -10060.91301180
  -exchange      EXHF   =         0.00000000
  -V(xc)+E(xc)   XCENC  =      1343.26163354
  PAW double counting   =     15791.42889385   -16580.72393845
  entropy T*S    EENTRO =        -0.00000000
  eigenvalues    EBANDS =     -2540.44312067
  atomic energy  EATOM  =     21654.00304829
  Solvation  Ediel_sol  =         0.00000000
  ---------------------------------------------------
  free energy    TOTEN  =      -468.21748833 eV

  energy without entropy =     -468.21748833  energy(sigma->0) =     -468.21748833


--------------------------------------------------------------------------------------------------------




----------------------------------------- Iteration    1(  18)  ---------------------------------------


    POTLOK:  cpu time    0.0649: real time    0.0650
    SETDIJ:  cpu time    0.0109: real time    0.0109
     EDDAV:  cpu time   10.2932: real time   10.3185
       DOS:  cpu time    0.0032: real time    0.0032
    --------------------------------------------
      LOOP:  cpu time   10.3728: real time   10.4230

 eigenvalue-minimisations  :  3456
 total energy-change (2. order) : 0.1705776E-06  (-0.1067521E-06)
 number of electron     311.9999852 magnetization      -0.0001007
 augmentation part       51.6598179 magnetization      -0.0000805

 Free energy of the ion-electron system (eV)
  ---------------------------------------------------
  alpha Z        PSCENC =       638.80395546
  Ewald energy   TEWEN  =    -10713.63494855
  -Hartree energ DENC   =    -10060.90495679
  -exchange      EXHF   =         0.00000000
  -V(xc)+E(xc)   XCENC  =      1343.26132667
  PAW double counting   =     15791.43205141   -16580.72430316
  entropy T*S    EENTRO =        -0.00000000
  eigenvalues    EBANDS =     -2540.45366150
  atomic energy  EATOM  =     21654.00304829
  Solvation  Ediel_sol  =         0.00000000
  ---------------------------------------------------
  free energy    TOTEN  =      -468.21748816 eV

  energy without entropy =     -468.21748816  energy(sigma->0) =     -468.21748816


[...]
   -.330E+02 -.369E+02 0.224E+02   0.363E+02 0.407E+02 -.253E+02   -.336E+01 -.379E+01 0.294E+01   -.159E-04 -.611E-04 -.161E-04
   0.330E+02 0.369E+02 0.224E+02   -.363E+02 -.407E+02 -.253E+02   0.336E+01 0.379E+01 0.294E+01   0.159E-04 0.611E-04 -.171E-04
   0.332E+01 0.266E+02 0.308E+02   -.257E+01 -.316E+02 -.357E+02   -.740E+00 0.495E+01 0.486E+01   0.458E-04 0.349E-04 -.933E-06
   -.332E+01 -.266E+02 0.308E+02   0.257E+01 0.316E+02 -.357E+02   0.740E+00 -.495E+01 0.486E+01   -.458E-04 -.349E-04 -.246E-05
   0.332E+01 -.266E+02 0.308E+02   -.257E+01 0.316E+02 -.357E+02   -.740E+00 -.495E+01 0.486E+01   0.458E-04 -.349E-04 -.932E-06
   -.332E+01 0.266E+02 0.308E+02   0.257E+01 -.316E+02 -.357E+02   0.740E+00 0.495E+01 0.486E+01   -.459E-04 0.349E-04 -.248E-05
   -.114E+02 -.293E+02 0.255E+02   0.120E+02 0.355E+02 -.284E+02   -.629E+00 -.615E+01 0.284E+01   0.338E-04 -.220E-04 -.506E-05
   0.114E+02 0.293E+02 0.255E+02   -.120E+02 -.355E+02 -.284E+02   0.629E+00 0.615E+01 0.284E+01   -.337E-04 0.220E-04 -.652E-05
   -.114E+02 0.293E+02 0.255E+02   0.120E+02 -.355E+02 -.284E+02   -.629E+00 0.615E+01 0.284E+01   0.338E-04 0.221E-04 -.507E-05
   0.114E+02 -.293E+02 0.255E+02   -.120E+02 0.355E+02 -.284E+02   0.629E+00 -.615E+01 0.284E+01   -.339E-04 -.220E-04 -.653E-05
   -.398E+02 -.355E-01 -.208E+02   0.447E+02 -.892E+00 0.256E+02   -.493E+01 0.920E+00 -.471E+01   -.486E-05 0.637E-05 -.293E-05
   0.398E+02 0.355E-01 -.208E+02   -.447E+02 0.892E+00 0.256E+02   0.493E+01 -.920E+00 -.471E+01   0.486E-05 -.644E-05 -.381E-05
   -.398E+02 0.355E-01 -.208E+02   0.447E+02 0.892E+00 0.256E+02   -.493E+01 -.920E+00 -.471E+01   -.486E-05 -.637E-05 -.297E-05
   0.398E+02 -.355E-01 -.208E+02   -.447E+02 -.892E+00 0.256E+02   0.493E+01 0.920E+00 -.471E+01   0.475E-05 0.645E-05 -.382E-05
   0.134E+02 0.352E+02 -.321E+02   -.130E+02 -.407E+02 0.369E+02   -.368E+00 0.551E+01 -.476E+01   0.463E-04 -.703E-04 0.116E-03
   -.134E+02 -.352E+02 -.321E+02   0.130E+02 0.407E+02 0.369E+02   0.368E+00 -.551E+01 -.476E+01   -.462E-04 0.703E-04 0.115E-03
   0.134E+02 -.352E+02 -.321E+02   -.130E+02 0.407E+02 0.369E+02   -.368E+00 -.551E+01 -.476E+01   0.462E-04 0.703E-04 0.116E-03
   -.134E+02 0.352E+02 -.321E+02   0.130E+02 -.407E+02 0.369E+02   0.368E+00 0.551E+01 -.476E+01   -.462E-04 -.703E-04 0.115E-03
   0.187E+02 -.391E+02 -.298E+02   -.194E+02 0.454E+02 0.335E+02   0.733E+00 -.627E+01 -.367E+01   0.276E-04 0.739E-04 0.839E-04
   -.187E+02 0.391E+02 -.298E+02   0.194E+02 -.454E+02 0.335E+02   -.733E+00 0.627E+01 -.367E+01   -.275E-04 -.740E-04 0.834E-04
   0.187E+02 0.391E+02 -.298E+02   -.194E+02 -.454E+02 0.335E+02   0.733E+00 0.627E+01 -.367E+01   0.275E-04 -.739E-04 0.839E-04
   -.187E+02 -.391E+02 -.298E+02   0.194E+02 0.454E+02 0.335E+02   -.733E+00 -.627E+01 -.367E+01   -.275E-04 0.740E-04 0.834E-04
   0.127E+03 0.179E+02 0.402E+01   -.155E+03 -.222E+02 -.207E+02   0.277E+02 0.426E+01 0.167E+02   0.309E-03 0.340E-04 0.264E-03
   -.127E+03 -.179E+02 0.402E+01   0.155E+03 0.222E+02 -.207E+02   -.277E+02 -.426E+01 0.167E+02   -.309E-03 -.343E-04 0.259E-03
   0.127E+03 -.179E+02 0.402E+01   -.155E+03 0.222E+02 -.207E+02   0.277E+02 -.426E+01 0.167E+02   0.309E-03 -.340E-04 0.264E-03
   -.127E+03 0.179E+02 0.402E+01   0.155E+03 -.222E+02 -.207E+02   -.277E+02 0.426E+01 0.167E+02   -.309E-03 0.343E-04 0.259E-03
   -.502E+02 0.673E+00 0.440E+02   0.547E+02 -.384E+00 -.465E+02   -.443E+01 -.289E+00 0.253E+01   0.366E-03 0.462E-04 0.807E-04
   0.502E+02 -.673E+00 0.440E+02   -.547E+02 0.384E+00 -.465E+02   0.443E+01 0.289E+00 0.253E+01   -.366E-03 -.465E-04 0.740E-04
   -.502E+02 -.673E+00 0.440E+02   0.547E+02 0.384E+00 -.465E+02   -.443E+01 0.289E+00 0.253E+01   0.366E-03 -.461E-04 0.806E-04
   0.502E+02 0.673E+00 0.440E+02   -.547E+02 -.384E+00 -.465E+02   0.443E+01 -.289E+00 0.253E+01   -.366E-03 0.465E-04 0.739E-04
 -----------------------------------------------------------------------------------------------
   -.205E-02 -.555E-03 -.923E+02   -.924E-13 -.194E-12 -.526E-12   0.000E+00 0.622E-14 0.924E+02   0.396E-06 0.604E-08 -.492E-03
 
 
 POSITION                                       TOTAL-FORCE (eV/Angst)
 -----------------------------------------------------------------------------------
      4.66052      3.87547      5.87574         0.004350     -0.000715     -0.000179
      3.99190      3.88185      0.13467        -0.004350      0.000715     -0.000179
      0.33431      0.00319      5.87574         0.004350      0.000715     -0.000179
      8.31812      7.75413      0.13467        -0.004350     -0.000715     -0.000179
      4.87543      5.02962      7.66775        -0.000785     -0.002369      0.002380
      3.77700      2.72770      1.92668         0.000785      0.002369      0.002380
      0.54921      6.60636      7.66775        -0.000785      0.002369      0.002380
      8.10321      1.15096      1.92668         0.000785     -0.002369      0.002380
      4.37765      4.97660      9.84812         0.000365     -0.001623     -0.002020
      4.27477      2.78072      4.10704        -0.000365      0.001623     -0.002020
      0.05144      6.65938      9.84812         0.000365      0.001623     -0.002020
      8.60099      1.09794      4.10704        -0.000365     -0.001623     -0.002020
      3.85894      5.66415      5.04497        -0.000204     -0.000159      0.000325
      4.79348      2.09318     10.78605         0.000204      0.000159      0.000325
      8.18515      5.97184      5.04497        -0.000204      0.000159      0.000325
      0.46727      1.78548     10.78605         0.000204     -0.000159      0.000325
      2.20546      7.17281      5.03856        -0.000554     -0.002690      0.001815
      6.44696      0.58451     10.77963         0.000554      0.002690      0.001815
      6.53167      4.46317      5.03856        -0.000554      0.002690      0.001815
      2.12075      3.29415     10.77963         0.000554     -0.002690      0.001815
      2.76541      3.31987      6.66109         0.000945     -0.003002     -0.000692
      5.88701      4.43745      0.92001        -0.000945      0.003002     -0.000692
      7.09162      0.55879      6.66109         0.000945      0.003002     -0.000692
      1.56080      7.19853      0.92001        -0.000945     -0.003002     -0.000692
      1.11644      1.81104      6.69028        -0.001333      0.000117      0.000340
      7.53598      5.94628      0.94920         0.001333     -0.000117      0.000340
      5.44266      2.06762      6.69028        -0.001333     -0.000117      0.000340
      3.20977      5.68970      0.94920         0.001333      0.000117      0.000340
      4.65255      4.39845      8.75376        -0.000138      0.003448     -0.000259
      3.99987      3.35887      3.01268         0.000138     -0.003448     -0.000259
      0.32634      7.23753      8.75376        -0.000138     -0.003448     -0.000259
      8.32608      0.51979      3.01268         0.000138      0.003448     -0.000259
      2.79978      6.15853      5.53416        -0.000665      0.001270     -0.000106
      5.85265      1.59879     11.27523         0.000665     -0.001270     -0.000106
      7.12599      5.47745      5.53416        -0.000665     -0.001270     -0.000106
      1.52644      2.27987     11.27523         0.000665      0.001270     -0.000106
      2.29939      2.17851      6.37769         0.000866      0.001249     -0.000187
      6.35303      5.57881      0.63661        -0.000866     -0.001249     -0.000187
      6.62561      1.70015      6.37769         0.000866     -0.001249     -0.000187
      2.02682      6.05717      0.63661        -0.000866      0.001249     -0.000187
      4.70181      3.29756      8.73133         0.000203      0.000648      0.000079
      3.95061      4.45976      2.99025        -0.000203     -0.000648      0.000079
      0.37560      0.58110      8.73133         0.000203     -0.000648      0.000079
      8.27682      7.17623      2.99025        -0.000203      0.000648      0.000079
      2.36448      5.69203      6.43354         0.000716      0.000994     -0.001924
      6.28794      2.06530      0.69247        -0.000716     -0.000994     -0.001924
      6.69069      5.94396      6.43354         0.000716     -0.000994     -0.001924
      1.96173      1.81336      0.69247        -0.000716      0.000994     -0.001924
      2.93281      1.46283      5.82612        -0.000889      0.001567      0.000863
      5.71962      6.29449      0.08504         0.000889     -0.001567      0.000863
      7.25902      2.41583      5.82612        -0.000889     -0.001567      0.000863
      1.39341      5.34149      0.08504         0.000889      0.001567      0.000863
      0.61082      3.18148      7.77614         0.000148     -0.000593     -0.000877
      8.04160      4.57584      2.03507        -0.000148      0.000593     -0.000877
      4.93703      0.69718      7.77614         0.000148      0.000593     -0.000877
      3.71539      7.06014      2.03507        -0.000148     -0.000593     -0.000877
      0.60255      4.87565      8.06606         0.000206      0.001261     -0.000684
      8.04987      2.88167      2.32498        -0.000206     -0.001261     -0.000684
      4.92877      6.76033      8.06606         0.000206     -0.001261     -0.000684
      3.72366      0.99699      2.32498        -0.000206      0.001261     -0.000684
      1.26204      3.78732      9.22122         0.000541      0.000202     -0.000430
      7.39038      3.97000      3.48014        -0.000541     -0.000202     -0.000430
      5.58825      0.09134      9.22122         0.000541     -0.000202     -0.000430
      3.06417      7.66598      3.48014        -0.000541      0.000202     -0.000430
      7.91379      3.08827      9.78820         0.000144     -0.001215      0.001332
      0.73863      4.66905      4.04712        -0.000144      0.001215      0.001332
      3.58758      0.79039      9.78820         0.000144      0.001215      0.001332
      5.06485      6.96693      4.04712        -0.000144     -0.001215      0.001332
      7.76196      4.72851      9.63654        -0.000484      0.001546      0.001199
      0.89046      3.02881      3.89546         0.000484     -0.001546      0.001199
      3.43575      6.90747      9.63654        -0.000484     -0.001546      0.001199
      5.21667      0.84985      3.89546         0.000484      0.001546      0.001199
      7.83890      3.85262      9.10246         0.005984      0.000252     -0.005423
      0.81352      3.90471      3.36138        -0.005984     -0.000252     -0.005423
      3.51269      0.02605      9.10246         0.005984     -0.000252     -0.005423
      5.13973      7.73128      3.36138        -0.005984      0.000252     -0.005423
      0.50617      3.92473      8.50520        -0.006278     -0.000769      0.004449
      8.14625      3.83259      2.76412         0.006278      0.000769      0.004449
      4.83239      7.71125      8.50520        -0.006278      0.000769      0.004449
      3.82004      0.04607      2.76412         0.006278     -0.000769      0.004449
 -----------------------------------------------------------------------------------
    total drift:                               -0.002045     -0.000555      0.014606


--------------------------------------------------------------------------------------------------------



  FREE ENERGIE OF THE ION-ELECTRON SYSTEM (eV)
  ---------------------------------------------------
  free  energy   TOTEN  =      -473.43627701 eV

  energy  without entropy=     -473.43627701  energy(sigma->0) =     -473.43627701
 


--------------------------------------------------------------------------------------------------------


    POTLOK:  cpu time    0.0654: real time    0.0656


--------------------------------------------------------------------------------------------------------


     LOOP+:  cpu time  355.7318: real time  357.7554
    4ORBIT:  cpu time    0.0000: real time    0.0000
 


 total charge     
 
# of ion     s       p       d       tot
----------------------------------------
  1        0.364   0.360   9.906  10.631
  2        0.364   0.360   9.906  10.631
  3        0.364   0.361   9.906  10.631
  4        0.364   0.360   9.906  10.631
  5        1.569   3.571   0.000   5.139
  6        1.569   3.571   0.000   5.139
  7        1.569   3.571   0.000   5.139
  8        1.569   3.571   0.000   5.139
  9        1.569   3.571   0.000   5.140
 10        1.569   3.571   0.000   5.140
 11        1.569   3.571   0.000   5.140
 12        1.569   3.571   0.000   5.140
 13        1.570   3.571   0.000   5.141
 14        1.570   3.571   0.000   5.141
 15        1.570   3.571   0.000   5.141
 16        1.570   3.571   0.000   5.142
 17        1.569   3.566   0.000   5.135
 18        1.569   3.566   0.000   5.135
 19        1.569   3.566   0.000   5.135
 20        1.569   3.566   0.000   5.135
 21        1.571   3.570   0.000   5.140
 22        1.571   3.570   0.000   5.140
 23        1.571   3.569   0.000   5.140
 24        1.571   3.569   0.000   5.140
 25        1.568   3.566   0.000   5.135
 26        1.568   3.566   0.000   5.135
 27        1.568   3.566   0.000   5.135
 28        1.568   3.566   0.000   5.135
 29        0.876   1.703   0.000   2.579
 30        0.876   1.703   0.000   2.579
 31        0.876   1.703   0.000   2.579
 32        0.876   1.703   0.000   2.579
 33        0.876   1.708   0.000   2.584
 34        0.876   1.708   0.000   2.584
 35        0.876   1.708   0.000   2.584
 36        0.876   1.708   0.000   2.584
 37        0.876   1.707   0.000   2.584
 38        0.876   1.707   0.000   2.584
 39        0.876   1.707   0.000   2.584
 40        0.876   1.707   0.000   2.584
 41        0.641   0.047   0.000   0.688
 42        0.641   0.047   0.000   0.688
 43        0.641   0.047   0.000   0.688
 44        0.641   0.047   0.000   0.688
 45        0.640   0.047   0.000   0.687
 46        0.640   0.047   0.000   0.687
 47        0.640   0.047   0.000   0.687
 48        0.640   0.047   0.000   0.687
 49        0.641   0.047   0.000   0.688
 50        0.641   0.047   0.000   0.688
 51        0.641   0.047   0.000   0.688
 52        0.641   0.047   0.000   0.688
 53        0.594   0.087   0.000   0.681
 54        0.594   0.087   0.000   0.681
 55        0.594   0.087   0.000   0.681
 56        0.594   0.087   0.000   0.681
 57        0.585   0.087   0.000   0.672
 58        0.585   0.087   0.000   0.672
 59        0.585   0.087   0.000   0.672
 60        0.585   0.087   0.000   0.672
 61        0.593   0.084   0.000   0.677
 62        0.593   0.084   0.000   0.677
 63        0.593   0.084   0.000   0.677
 64        0.593   0.084   0.000   0.677
 65        0.629   0.087   0.000   0.716
 66        0.629   0.087   0.000   0.716
 67        0.629   0.087   0.000   0.716
 68        0.629   0.087   0.000   0.716
 69        0.632   0.085   0.000   0.717
 70        0.632   0.085   0.000   0.717
 71        0.632   0.085   0.000   0.717
 72        0.632   0.085   0.000   0.717
 73        1.235   2.618   0.000   3.853
 74        1.235   2.618   0.000   3.853
 75        1.235   2.618   0.000   3.853
 76        1.235   2.618   0.000   3.853
 77        1.218   2.733   0.000   3.951
 78        1.218   2.733   0.000   3.951
 79        1.218   2.733   0.000   3.951
 80        1.218   2.733   0.000   3.951
------------------------------------------------
tot       79.263 131.262  39.626 250.151
 


 magnetization (x)
 
# of ion     s       p       d       tot
----------------------------------------
  1        0.000   0.000   0.000   0.000
  2        0.000   0.000   0.000   0.000
  3        0.000   0.000   0.000   0.000
  4        0.000   0.000   0.000   0.000
  5       -0.000  -0.000   0.000  -0.000
  6       -0.000  -0.000   0.000  -0.000
  7       -0.000  -0.000   0.000  -0.000
  8       -0.000  -0.000   0.000  -0.000
  9       -0.000  -0.000   0.000  -0.000
 10       -0.000  -0.000   0.000  -0.000
 11       -0.000  -0.000   0.000  -0.000
 12       -0.000  -0.000   0.000  -0.000
 13       -0.000  -0.000   0.000  -0.000
 14       -0.000  -0.000   0.000  -0.000
 15       -0.000  -0.000   0.000  -0.000
 16       -0.000  -0.000   0.000  -0.000
 17       -0.000  -0.000   0.000  -0.000
 18       -0.000  -0.000   0.000  -0.000
 19       -0.000  -0.000   0.000  -0.000
 20       -0.000  -0.000   0.000  -0.000
 21       -0.000  -0.000   0.000  -0.000
 22       -0.000  -0.000   0.000  -0.000
 23       -0.000  -0.000   0.000  -0.000
 24       -0.000  -0.000   0.000  -0.000
 25       -0.000  -0.000   0.000  -0.000
 26       -0.000  -0.000   0.000  -0.000
 27       -0.000  -0.000   0.000  -0.000
 28       -0.000  -0.000   0.000  -0.000
 29       -0.000  -0.000   0.000  -0.000
 30       -0.000  -0.000   0.000  -0.000
 31       -0.000  -0.000   0.000  -0.000
 32       -0.000  -0.000   0.000  -0.000
 33       -0.000  -0.000   0.000  -0.000
 34       -0.000  -0.000   0.000  -0.000
 35       -0.000  -0.000   0.000  -0.000
 36       -0.000  -0.000   0.000  -0.000
 37       -0.000  -0.000   0.000  -0.000
 38       -0.000  -0.000   0.000  -0.000
 39       -0.000  -0.000   0.000  -0.000
 40       -0.000  -0.000   0.000  -0.000
 41        0.000  -0.000   0.000  -0.000
 42        0.000  -0.000   0.000  -0.000
 43        0.000  -0.000   0.000  -0.000
 44        0.000  -0.000   0.000  -0.000
 45        0.000  -0.000   0.000   0.000
 46        0.000  -0.000   0.000   0.000
 47        0.000  -0.000   0.000   0.000
 48        0.000  -0.000   0.000   0.000
 49        0.000  -0.000   0.000  -0.000
 50        0.000  -0.000   0.000  -0.000
 51        0.000  -0.000   0.000  -0.000
 52        0.000  -0.000   0.000  -0.000
 53       -0.000  -0.000   0.000  -0.000
 54       -0.000  -0.000   0.000  -0.000
 55       -0.000  -0.000   0.000  -0.000
 56       -0.000  -0.000   0.000  -0.000
 57       -0.000  -0.000   0.000  -0.000
 58       -0.000  -0.000   0.000  -0.000
 59       -0.000  -0.000   0.000  -0.000
 60       -0.000  -0.000   0.000  -0.000
 61       -0.000  -0.000   0.000  -0.000
 62       -0.000  -0.000   0.000  -0.000
 63       -0.000  -0.000   0.000  -0.000
 64       -0.000  -0.000   0.000  -0.000
 65        0.000  -0.000   0.000   0.000
 66        0.000  -0.000   0.000   0.000
 67        0.000  -0.000   0.000   0.000
 68        0.000  -0.000   0.000   0.000
 69        0.000  -0.000   0.000   0.000
 70        0.000  -0.000   0.000   0.000
 71        0.000  -0.000   0.000   0.000
 72        0.000  -0.000   0.000   0.000
 73       -0.000  -0.000   0.000  -0.000
 74       -0.000  -0.000   0.000  -0.000
 75       -0.000  -0.000   0.000  -0.000
 76       -0.000  -0.000   0.000  -0.000
 77       -0.000   0.000   0.000   0.000
 78       -0.000   0.000   0.000   0.000
 79       -0.000   0.000   0.000   0.000
 80       -0.000   0.000   0.000   0.000
------------------------------------------------
tot       -0.000  -0.000   0.000  -0.000
 

 total amount of memory used by VASP on root node   239196. kBytes
========================================================================

   base      :      30000. kBytes
   nonl-proj :     134983. kBytes
   fftplans  :       3190. kBytes
   grid      :      47369. kBytes
   one-center:       2488. kBytes
   wavefun   :      21166. kBytes
 
  
  
 General timing and accounting informations for this job:
 ========================================================
  
                  Total CPU time used (sec):      366.681
                            User time (sec):      365.711
                          System time (sec):        0.971
                         Elapsed time (sec):      404.058
  
                   Maximum memory used (kb):      461212.
                   Average memory used (kb):           0.
  
                          Minor page faults:       569718
                          Major page faults:          161
                 Voluntary context switches:        13175
