 vasp.6.2.0 18Jan21 (build Jun 21 2021 16:53:19) complex                        
  
 executed on    LinuxIFC_2020xeU1 date 2021.09.18  05:40:17
 running on   60 total cores
 distrk:  each k-point on   30 cores,    2 groups
 distr:  one band on NCORE=   1 cores,   30 groups


--------------------------------------------------------------------------------------------------------


 INCAR:
   IVDW = 11           (DFT-D3 method of method with no damping)
   ISPIN = 1 (Spin un-polarised DFT)
   ISTART = 1             (Read existing wavefunction
   ICHARG = 11         (Non-self-consistent: GGA/LDA band structures)
   LORBIT = 11
   LASPH = T
   GGA_COMPAT = .FALSE.
   LREAL = .FALSE.       (Projection operators: automatic)
   ENCUT = 708
   ENAUG = 708
   PREC = Accurate     (Precision level)
   LMAXMIX = 4
   LWAVE = .TRUE.        (Write WAVECAR or not)
   LCHARG = .TRUE.        (Write CHGCAR or not)
   ADDGRID = .TRUE.        (Increase grid
   LPLANE = .TRUE.      (Real space distribution
   NWRITE = 2           (Medium-level output)
   KPAR = 2           (Divides k-grid into separate groups)
   NSW = 0          (number of ionic steps)
   ISMEAR = 0            (gaussian smearing method )
   SIGMA = 0.05         (please check the width of the smearing)
   IBRION = -1            (Algorithm: 0-MD
   EDIFF = 1.0d-10
   KSPACING = 0.2
   LCALCPOL = T

 POTCAR:    PAW_PBE Zn 06Sep2000                  
 POTCAR:    PAW_PBE O 08Apr2002                   
 POTCAR:    PAW_PBE C 08Apr2002                   
 POTCAR:    PAW_PBE H 15Jun2001                   
 POTCAR:    PAW_PBE N 08Apr2002                   
 -----------------------------------------------------------------------------
|                                                                             |
|           W    W    AA    RRRRR   N    N  II  N    N   GGGG   !!!           |
|           W    W   A  A   R    R  NN   N  II  NN   N  G    G  !!!           |
|           W    W  A    A  R    R  N N  N  II  N N  N  G       !!!           |
|           W WW W  AAAAAA  RRRRR   N  N N  II  N  N N  G  GGG   !            |
|           WW  WW  A    A  R   R   N   NN  II  N   NN  G    G                |
|           W    W  A    A  R    R  N    N  II  N    N   GGGG   !!!           |
|                                                                             |
|     For optimal performance we recommend to set                             |
|       NCORE = 2 up to number-of-cores-per-socket                            |
|     NCORE specifies how many cores store one orbital (NPAR=cpu/NCORE).      |
|     This setting can greatly improve the performance of VASP for DFT.       |
|     The default, NCORE=1 might be grossly inefficient on modern             |
|     multi-core architectures or massively parallel machines. Do your        |
|     own testing! More info at https://www.vasp.at/wiki/index.php/NCORE      |
|     Unfortunately you need to use the default for GW and RPA                |
|     calculations (for HF NCORE is supported but not extensively tested      |
|     yet).                                                                   |
|                                                                             |
 -----------------------------------------------------------------------------

 POTCAR:    PAW_PBE Zn 06Sep2000                  
   SHA256 =  501fddbd8274dd8e9725d4f3de27861d7f1e553a7e18441bc79fed8f346e7f23 Zn/POTCAR             
   COPYR  = (c) Copyright 06Sep2000 Georg Kresse                                                    
   COPYR  = This file is part of the software VASP. Any use, copying, and all other rights are regul
   COPYR  = If you do not have a valid VASP license, you may not use, copy or distribute this file. 
   VRHFIN =Zn: d10 p2                                                                               
   LEXCH  = PE                                                                                      
   EATOM  =  1748.8345 eV,  128.5357 Ry                                                             
                                                                                                    
   TITEL  = PAW_PBE Zn 06Sep2000                                                                    
   LULTRA =        F    use ultrasoft PP ?                                                          
   IUNSCR =        1    unscreen: 0-lin 1-nonlin 2-no                                               
   RPACOR =    2.000    partial core radius                                                         
   POMASS =   65.390; ZVAL   =   12.000    mass and valenz                                          
   RCORE  =    2.300    outmost cutoff radius                                                       
   RWIGS  =    2.400; RWIGS  =    1.270    wigner-seitz radius (au A)                               
   ENMAX  =  276.723; ENMIN  =  207.542 eV                                                          
   RCLOC  =    1.828    cutoff for local pot                                                        
   LCOR   =        T    correct aug charges                                                         
   LPAW   =        T    paw PP                                                                      
   EAUG   =  575.892                                                                                
   DEXC   =    0.000                                                                                
   RMAX   =    2.347    core radius for proj-oper                                                   
   RAUG   =    1.300    factor for augmentation sphere                                              
   RDEP   =    2.324    radius for radial grids                                                     
   RDEPT  =    1.788    core radius for aug-charge                                                  
                                                                                                    
   Atomic configuration                                                                             
    9 entries                                                                                       
     n  l   j            E        occ.                                                              
     1  0  0.50     -9524.6913   2.0000                                                             
     2  0  0.50     -1158.1882   2.0000                                                             
     2  1  1.50     -1003.8506   6.0000                                                             
     3  0  0.50      -129.2194   2.0000                                                             
     3  1  1.50       -83.3890   6.0000                                                             
     3  2  2.50       -10.1410  10.0000                                                             
     4  0  0.50        -5.9785   2.0000                                                             
     4  1  0.50        -4.0817   0.0000                                                             
     4  3  2.50        -1.3606   0.0000                                                             
   Description                                                                                      
     l       E           TYP  RCUT    TYP  RCUT                                                     
     2    -10.1410010     23  2.300                                                                 
     2    -11.5015836     23  2.300                                                                 
     0     -5.9785163     23  2.300                                                                 
     0      1.1858015     23  2.300                                                                 
     1     -2.7211652     23  2.300                                                                 
     1     13.2444212     23  2.300                                                                 
  local pseudopotential read in
  partial core-charges read in
  partial kinetic energy density read in
  atomic valenz-charges read in
  non local Contribution for L=           2  read in
    real space projection operators read in
  non local Contribution for L=           2  read in
    real space projection operators read in
  non local Contribution for L=           0  read in
    real space projection operators read in
  non local Contribution for L=           0  read in
    real space projection operators read in
  non local Contribution for L=           1  read in
    real space projection operators read in
  non local Contribution for L=           1  read in
    real space projection operators read in
    PAW grid and wavefunctions read in
 
   number of l-projection  operators is LMAX  =           6
   number of lm-projection operators is LMMAX =          18
 
 POTCAR:    PAW_PBE O 08Apr2002                   
   SHA256 =  818f92134a0a090dccd8ba1447fa70422a3b330e708bb4f08108d8ae51209ddf O/POTCAR              
   COPYR  = (c) Copyright 08Apr2002 Georg Kresse                                                    
   COPYR  = This file is part of the software VASP. Any use, copying, and all other rights are regul
   COPYR  = If you do not have a valid VASP license, you may not use, copy or distribute this file. 
   VRHFIN =O: s2p4                                                                                  
   LEXCH  = PE                                                                                      
   EATOM  =   432.3788 eV,   31.7789 Ry                                                             
                                                                                                    
   TITEL  = PAW_PBE O 08Apr2002                                                                     
   LULTRA =        F    use ultrasoft PP ?                                                          
   IUNSCR =        1    unscreen: 0-lin 1-nonlin 2-no                                               
   RPACOR =    1.200    partial core radius                                                         
   POMASS =   16.000; ZVAL   =    6.000    mass and valenz                                          
   RCORE  =    1.520    outmost cutoff radius                                                       
   RWIGS  =    1.550; RWIGS  =    0.820    wigner-seitz radius (au A)                               
   ENMAX  =  400.000; ENMIN  =  300.000 eV                                                          
   ICORE  =        2    local potential                                                             
   LCOR   =        T    correct aug charges                                                         
   LPAW   =        T    paw PP                                                                      
   EAUG   =  605.392                                                                                
   DEXC   =    0.000                                                                                
   RMAX   =    1.553    core radius for proj-oper                                                   
   RAUG   =    1.300    factor for augmentation sphere                                              
   RDEP   =    1.550    radius for radial grids                                                     
   RDEPT  =    1.329    core radius for aug-charge                                                  
                                                                                                    
   Atomic configuration                                                                             
    4 entries                                                                                       
     n  l   j            E        occ.                                                              
     1  0  0.50      -514.6923   2.0000                                                             
     2  0  0.50       -23.9615   2.0000                                                             
     2  1  0.50        -9.0305   4.0000                                                             
     3  2  1.50        -9.5241   0.0000                                                             
   Description                                                                                      
     l       E           TYP  RCUT    TYP  RCUT                                                     
     0    -23.9615318     23  1.200                                                                 
     0     -9.5240782     23  1.200                                                                 
     1     -9.0304911     23  1.520                                                                 
     1      8.1634956     23  1.520                                                                 
     2     -9.5240782      7  1.500                                                                 
  local pseudopotential read in
  partial core-charges read in
  partial kinetic energy density read in
  kinetic energy density of atom read in
  atomic valenz-charges read in
  non local Contribution for L=           0  read in
    real space projection operators read in
  non local Contribution for L=           0  read in
    real space projection operators read in
  non local Contribution for L=           1  read in
    real space projection operators read in
  non local Contribution for L=           1  read in
    real space projection operators read in
    PAW grid and wavefunctions read in
 
   number of l-projection  operators is LMAX  =           4
   number of lm-projection operators is LMMAX =           8
 
 POTCAR:    PAW_PBE C 08Apr2002                   
   SHA256 =  253f7b50bb8d59471dbedb8285d89021f4a42ed1a2c5d38a03a736e69125dd95 C/POTCAR              
   COPYR  = (c) Copyright 08Apr2002 Georg Kresse                                                    
   COPYR  = This file is part of the software VASP. Any use, copying, and all other rights are regul
   COPYR  = If you do not have a valid VASP license, you may not use, copy or distribute this file. 
   VRHFIN =C: s2p2                                                                                  
   LEXCH  = PE                                                                                      
   EATOM  =   147.1560 eV,   10.8157 Ry                                                             
                                                                                                    
   TITEL  = PAW_PBE C 08Apr2002                                                                     
   LULTRA =        F    use ultrasoft PP ?                                                          
   IUNSCR =        1    unscreen: 0-lin 1-nonlin 2-no                                               
   RPACOR =    1.200    partial core radius                                                         
   POMASS =   12.011; ZVAL   =    4.000    mass and valenz                                          
   RCORE  =    1.500    outmost cutoff radius                                                       
   RWIGS  =    1.630; RWIGS  =    0.863    wigner-seitz radius (au A)                               
   ENMAX  =  400.000; ENMIN  =  300.000 eV                                                          
   ICORE  =        2    local potential                                                             
   LCOR   =        T    correct aug charges                                                         
   LPAW   =        T    paw PP                                                                      
   EAUG   =  644.873                                                                                
   DEXC   =    0.000                                                                                
   RMAX   =    1.529    core radius for proj-oper                                                   
   RAUG   =    1.300    factor for augmentation sphere                                              
   RDEP   =    1.501    radius for radial grids                                                     
   RDEPT  =    1.300    core radius for aug-charge                                                  
                                                                                                    
   Atomic configuration                                                                             
    4 entries                                                                                       
     n  l   j            E        occ.                                                              
     1  0  0.50      -273.3789   2.0000                                                             
     2  0  0.50       -13.7508   2.0000                                                             
     2  1  0.50        -5.2854   2.0000                                                             
     3  2  1.50        -5.4423   0.0000                                                             
   Description                                                                                      
     l       E           TYP  RCUT    TYP  RCUT                                                     
     0    -13.7508458     23  1.200                                                                 
     0     -8.2022199     23  1.200                                                                 
     1     -5.2854383     23  1.500                                                                 
     1     34.0145650     23  1.500                                                                 
     2     -5.4423304      7  1.500                                                                 
  local pseudopotential read in
  partial core-charges read in
  partial kinetic energy density read in
  atomic valenz-charges read in
  non local Contribution for L=           0  read in
    real space projection operators read in
  non local Contribution for L=           0  read in
    real space projection operators read in
  non local Contribution for L=           1  read in
    real space projection operators read in
  non local Contribution for L=           1  read in
    real space projection operators read in
    PAW grid and wavefunctions read in
 
   number of l-projection  operators is LMAX  =           4
   number of lm-projection operators is LMMAX =           8
 
 POTCAR:    PAW_PBE H 15Jun2001                   
   SHA256 =  030f79b5d3ab3cf0e668861823c8fb652ff669f3e15e46930bd03bfd63a607b6 H/POTCAR              
   COPYR  = (c) Copyright 15Jun2001 Georg Kresse                                                    
   COPYR  = This file is part of the software VASP. Any use, copying, and all other rights are regul
   COPYR  = If you do not have a valid VASP license, you may not use, copy or distribute this file. 
   VRHFIN =H: ultrasoft test                                                                        
   LEXCH  = PE                                                                                      
   EATOM  =    12.4884 eV,    0.9179 Ry                                                             
                                                                                                    
   TITEL  = PAW_PBE H 15Jun2001                                                                     
   LULTRA =        F    use ultrasoft PP ?                                                          
   IUNSCR =        0    unscreen: 0-lin 1-nonlin 2-no                                               
   RPACOR =    0.000    partial core radius                                                         
   POMASS =    1.000; ZVAL   =    1.000    mass and valenz                                          
   RCORE  =    1.100    outmost cutoff radius                                                       
   RWIGS  =    0.700; RWIGS  =    0.370    wigner-seitz radius (au A)                               
   ENMAX  =  250.000; ENMIN  =  200.000 eV                                                          
   RCLOC  =    0.701    cutoff for local pot                                                        
   LCOR   =        T    correct aug charges                                                         
   LPAW   =        T    paw PP                                                                      
   EAUG   =  400.000                                                                                
   RMAX   =    1.123    core radius for proj-oper                                                   
   RAUG   =    1.200    factor for augmentation sphere                                              
   RDEP   =    1.112    radius for radial grids                                                     
   RDEPT  =    0.926    core radius for aug-charge                                                  
                                                                                                    
   Atomic configuration                                                                             
    2 entries                                                                                       
     n  l   j            E        occ.                                                              
     1  0  0.50        -6.4927   1.0000                                                             
     2  1  0.50        -3.4015   0.0000                                                             
   Description                                                                                      
     l       E           TYP  RCUT    TYP  RCUT                                                     
     0     -6.4927494     23  1.100                                                                 
     0      6.8029130     23  1.100                                                                 
     1     -4.0817478     23  1.100                                                                 
  local pseudopotential read in
  atomic valenz-charges read in
  non local Contribution for L=           0  read in
    real space projection operators read in
  non local Contribution for L=           0  read in
    real space projection operators read in
  non local Contribution for L=           1  read in
    real space projection operators read in
    PAW grid and wavefunctions read in
 
   number of l-projection  operators is LMAX  =           3
   number of lm-projection operators is LMMAX =           5
 
 POTCAR:    PAW_PBE N 08Apr2002                   
   SHA256 =  e053789ff3a61a86a1b75d8a110fcc91f86041011e7b0817c7c99e4e8a6349d7 N/POTCAR              
   COPYR  = (c) Copyright 08Apr2002 Georg Kresse                                                    
   COPYR  = This file is part of the software VASP. Any use, copying, and all other rights are regul
   COPYR  = If you do not have a valid VASP license, you may not use, copy or distribute this file. 
   VRHFIN =N: s2p3                                                                                  
   LEXCH  = PE                                                                                      
   EATOM  =   264.5486 eV,   19.4438 Ry                                                             
                                                                                                    
   TITEL  = PAW_PBE N 08Apr2002                                                                     
   LULTRA =        F    use ultrasoft PP ?                                                          
   IUNSCR =        1    unscreen: 0-lin 1-nonlin 2-no                                               
   RPACOR =    1.200    partial core radius                                                         
   POMASS =   14.001; ZVAL   =    5.000    mass and valenz                                          
   RCORE  =    1.500    outmost cutoff radius                                                       
   RWIGS  =    1.400; RWIGS  =    0.741    wigner-seitz radius (au A)                               
   ENMAX  =  400.000; ENMIN  =  300.000 eV                                                          
   ICORE  =        2    local potential                                                             
   LCOR   =        T    correct aug charges                                                         
   LPAW   =        T    paw PP                                                                      
   EAUG   =  627.112                                                                                
   DEXC   =    0.000                                                                                
   RMAX   =    1.529    core radius for proj-oper                                                   
   RAUG   =    1.300    factor for augmentation sphere                                              
   RDEP   =    1.514    radius for radial grids                                                     
   RDEPT  =    1.338    core radius for aug-charge                                                  
                                                                                                    
   Atomic configuration                                                                             
    4 entries                                                                                       
     n  l   j            E        occ.                                                              
     1  0  0.50      -384.7179   2.0000                                                             
     2  0  0.50       -18.5828   2.0000                                                             
     2  1  0.50        -7.0898   3.0000                                                             
     3  2  1.50        -6.8029   0.0000                                                             
   Description                                                                                      
     l       E           TYP  RCUT    TYP  RCUT                                                     
     0    -18.5828119     23  1.200                                                                 
     0    -13.5018863     23  1.200                                                                 
     1     -7.0897853     23  1.500                                                                 
     1      9.5240782     23  1.500                                                                 
     2     -6.8029130      7  1.500                                                                 
  local pseudopotential read in
  partial core-charges read in
  partial kinetic energy density read in
  atomic valenz-charges read in
  non local Contribution for L=           0  read in
    real space projection operators read in
  non local Contribution for L=           0  read in
    real space projection operators read in
  non local Contribution for L=           1  read in
    real space projection operators read in
  non local Contribution for L=           1  read in
    real space projection operators read in
    PAW grid and wavefunctions read in
 
   number of l-projection  operators is LMAX  =           4
   number of lm-projection operators is LMMAX =           8
 
 -----------------------------------------------------------------------------
|                                                                             |
|               ----> ADVICE to this user running VASP <----                  |
|                                                                             |
|     You have a (more or less) 'large supercell' and for larger cells it     |
|     might be more efficient to use real-space projection operators.         |
|     Therefore, try LREAL= Auto in the INCAR file.                           |
|     Mind: For very accurate calculation, you might also keep the            |
|     reciprocal projection scheme (i.e. LREAL=.FALSE.).                      |
|                                                                             |
 -----------------------------------------------------------------------------

  PAW_PBE Zn 06Sep2000                  :
 energy of atom  1       EATOM=-1748.8345
 kinetic energy error for atom=    0.0006 (will be added to EATOM!!)
  PAW_PBE O 08Apr2002                   :
 energy of atom  2       EATOM= -432.3788
 kinetic energy error for atom=    0.0085 (will be added to EATOM!!)
  PAW_PBE C 08Apr2002                   :
 energy of atom  3       EATOM= -147.1560
 kinetic energy error for atom=    0.0031 (will be added to EATOM!!)
  PAW_PBE H 15Jun2001                   :
 energy of atom  4       EATOM=  -12.4884
 kinetic energy error for atom=    0.0002 (will be added to EATOM!!)
  PAW_PBE N 08Apr2002                   :
 energy of atom  5       EATOM= -264.5486
 kinetic energy error for atom=    0.0057 (will be added to EATOM!!)
 
 
 POSCAR: crystal
  positions in direct lattice
  velocities in cartesian coordinates
  No initial velocities read in
 exchange correlation table for  LEXCH =        8
   RHO(1)=    0.500       N(1)  =     2000
   RHO(2)=  100.500       N(2)  =     4000
 


--------------------------------------------------------------------------------------------------------


 ion  position               nearest neighbor table
   1  0.232  0.250  0.250-  17 2.10  18 2.10   9 2.12  10 2.12  23 2.15  24 2.15
   2  0.268  0.750  0.250-  19 2.10  20 2.10  11 2.12  12 2.12  21 2.15  22 2.15
   3  0.768  0.750  0.750-  13 2.10  14 2.10   5 2.12   6 2.12  27 2.15  28 2.15
   4  0.732  0.250  0.750-  15 2.10  16 2.10   7 2.12   8 2.12  25 2.15  26 2.15
   5  0.769  0.905  0.874-  31 1.27   3 2.12
   6  0.769  0.595  0.626-  32 1.27   3 2.12
   7  0.731  0.405  0.626-  32 1.27   4 2.12
   8  0.731  0.095  0.874-  31 1.27   4 2.12
   9  0.231  0.095  0.126-  29 1.27   1 2.12
  10  0.231  0.405  0.374-  30 1.27   1 2.12
  11  0.269  0.595  0.374-  30 1.27   2 2.12
  12  0.269  0.905  0.126-  29 1.27   2 2.12
  13  0.915  0.675  0.914-  33 1.27   3 2.10
  14  0.915  0.825  0.586-  34 1.27   3 2.10
  15  0.585  0.175  0.586-  35 1.27   4 2.10
  16  0.585  0.325  0.914-  36 1.27   4 2.10
  17  0.085  0.325  0.086-  37 1.27   1 2.10
  18  0.085  0.175  0.414-  38 1.27   1 2.10
  19  0.415  0.825  0.414-  39 1.27   2 2.10
  20  0.415  0.675  0.086-  40 1.27   2 2.10
  21  0.071  0.689  0.116-  33 1.27   2 2.15
  22  0.071  0.811  0.384-  34 1.27   2 2.15
  23  0.429  0.189  0.384-  35 1.27   1 2.15
  24  0.429  0.311  0.116-  36 1.27   1 2.15
  25  0.929  0.311  0.884-  37 1.27   4 2.15
  26  0.929  0.189  0.616-  38 1.27   4 2.15
  27  0.571  0.811  0.616-  39 1.27   3 2.15
  28  0.571  0.689  0.884-  40 1.27   3 2.15
  29  0.250  0.000  0.192-  45 1.10  12 1.27   9 1.27
  30  0.250  0.500  0.308-  46 1.10  11 1.27  10 1.27
  31  0.750  0.000  0.808-  47 1.10   8 1.27   5 1.27
  32  0.750  0.500  0.692-  48 1.10   7 1.27   6 1.27
  33  0.035  0.717  0.984-  49 1.11  21 1.27  13 1.27
  34  0.035  0.783  0.516-  50 1.11  22 1.27  14 1.27
  35  0.465  0.217  0.516-  51 1.11  23 1.27  15 1.27
  36  0.465  0.283  0.984-  52 1.11  24 1.27  16 1.27
  37  0.965  0.283  0.016-  53 1.11  25 1.27  17 1.27
  38  0.965  0.217  0.484-  54 1.11  26 1.27  18 1.27
  39  0.535  0.783  0.484-  55 1.11  27 1.27  19 1.27
  40  0.535  0.717  0.016-  56 1.11  28 1.27  20 1.27
  41  0.250  0.000  0.739-  89 1.33  85 1.34  88 1.34
  42  0.250  0.500  0.761-  90 1.33  86 1.34  87 1.34
  43  0.750  0.000  0.261-  91 1.33  84 1.34  81 1.34
  44  0.750  0.500  0.239-  92 1.33  83 1.34  82 1.34
  45  0.250  0.000  0.314-  29 1.10
  46  0.250  0.500  0.186-  30 1.10
  47  0.750  0.000  0.686-  31 1.10
  48  0.750  0.500  0.814-  32 1.10
  49  0.110  0.782  0.927-  33 1.11
  50  0.110  0.718  0.573-  34 1.11
  51  0.390  0.282  0.573-  35 1.11
  52  0.390  0.218  0.927-  36 1.11
  53  0.890  0.218  0.073-  37 1.11
  54  0.890  0.282  0.427-  38 1.11
  55  0.610  0.718  0.427-  39 1.11
  56  0.610  0.782  0.073-  40 1.11
  57  0.832  0.919  0.074-  81 1.03
  58  0.832  0.581  0.426-  82 1.03
  59  0.668  0.419  0.426-  83 1.03
  60  0.668  0.081  0.074-  84 1.03
  61  0.168  0.081  0.926-  85 1.03
  62  0.168  0.419  0.574-  86 1.03
  63  0.332  0.581  0.574-  87 1.03
  64  0.332  0.919  0.926-  88 1.03
  65  0.926  0.878  0.245-  81 1.02
  66  0.926  0.622  0.255-  82 1.02
  67  0.574  0.378  0.255-  83 1.02
  68  0.574  0.122  0.245-  84 1.02
  69  0.074  0.122  0.755-  85 1.02
  70  0.074  0.378  0.745-  86 1.02
  71  0.426  0.622  0.745-  87 1.02
  72  0.426  0.878  0.755-  88 1.02
  73  0.814  0.939  0.467-  91 1.03
  74  0.814  0.561  0.033-  92 1.03
  75  0.686  0.439  0.033-  92 1.03
  76  0.686  0.061  0.467-  91 1.03
  77  0.186  0.061  0.533-  89 1.03
  78  0.186  0.439  0.967-  90 1.03
  79  0.314  0.561  0.967-  90 1.03
  80  0.314  0.939  0.533-  89 1.03
  81  0.844  0.926  0.187-  65 1.02  57 1.03  43 1.34
  82  0.844  0.574  0.313-  66 1.02  58 1.03  44 1.34
  83  0.656  0.426  0.313-  67 1.02  59 1.03  44 1.34
  84  0.656  0.074  0.187-  68 1.02  60 1.03  43 1.34
  85  0.156  0.074  0.813-  69 1.02  61 1.03  41 1.34
  86  0.156  0.426  0.687-  70 1.02  62 1.03  42 1.34
  87  0.344  0.574  0.687-  71 1.02  63 1.03  42 1.34
  88  0.344  0.926  0.813-  72 1.02  64 1.03  41 1.34
  89  0.250  0.000  0.591-  77 1.03  80 1.03  41 1.33
  90  0.250  0.500  0.909-  78 1.03  79 1.03  42 1.33
  91  0.750  0.000  0.409-  73 1.03  76 1.03  43 1.33
  92  0.750  0.500  0.091-  74 1.03  75 1.03  44 1.33
 
  LATTYP: Found a simple orthorhombic cell.
 ALAT       =     8.2747183332
 B/A-ratio  =     1.0865793642
 C/A-ratio  =     1.4094942948
  
  Lattice vectors:
  
 A1 = (  -8.2747183332,   0.0000000000,   0.0000000000)
 A2 = (   0.0000000000,   0.0000000000,   8.9911381855)
 A3 = (   0.0000000000,  11.6631682815,   0.0000000000)


Analysis of symmetry for initial positions (statically):
=====================================================================
 Subroutine PRICEL returns:
 Original cell was already a primitive cell.
 

 Routine SETGRP: Setting up the symmetry group for a 
 simple orthorhombic supercell.


 Subroutine GETGRP returns: Found  8 space group operations
 (whereof  2 operations were pure point group operations)
 out of a pool of  8 trial point group operations.


The static configuration has the point symmetry S_2 .
 The point group associated with its full space group is D_2h.


Analysis of symmetry for dynamics (positions and initial velocities):
=====================================================================
 Subroutine PRICEL returns:
 Original cell was already a primitive cell.
 

 Routine SETGRP: Setting up the symmetry group for a 
 simple orthorhombic supercell.


 Subroutine GETGRP returns: Found  8 space group operations
 (whereof  2 operations were pure point group operations)
 out of a pool of  8 trial point group operations.


The dynamic configuration has the point symmetry S_2 .
 The point group associated with its full space group is D_2h.


 Subroutine INISYM returns: Found  8 space group operations
 (whereof  2 operations are pure point group operations),
 and found     1 'primitive' translations


----------------------------------------------------------------------------------------

                                     Primitive cell                                     

  volume of cell :     867.7296

  direct lattice vectors                    reciprocal lattice vectors
     8.274718333  0.000000000  0.000000000     0.120850035  0.000000000  0.000000000
     0.000000000 11.663168282  0.000000000     0.000000000  0.085739996  0.000000000
     0.000000000  0.000000000  8.991138186     0.000000000  0.000000000  0.111220624

  length of vectors
     8.274718333 11.663168282  8.991138186     0.120850035  0.085739996  0.111220624

  position of ions in fractional coordinates (direct lattice)
     0.231663542  0.250000000  0.250000000
     0.268336458  0.750000000  0.250000000
     0.768336458  0.750000000  0.750000000
     0.731663542  0.250000000  0.750000000
     0.769271999  0.904801545  0.873966222
     0.769271999  0.595198455  0.626033778
     0.730728001  0.404801545  0.626033778
     0.730728001  0.095198455  0.873966222
     0.230728001  0.095198455  0.126033778
     0.230728001  0.404801545  0.373966222
     0.269271999  0.595198455  0.373966222
     0.269271999  0.904801545  0.126033778
     0.915465729  0.675002766  0.914159209
     0.915465729  0.824997234  0.585840791
     0.584534271  0.175002766  0.585840791
     0.584534271  0.324997234  0.914159209
     0.084534271  0.324997234  0.085840791
     0.084534271  0.175002766  0.414159209
     0.415465729  0.824997234  0.414159209
     0.415465729  0.675002766  0.085840791
     0.070559007  0.689377645  0.116466426
     0.070559007  0.810622355  0.383533574
     0.429440993  0.189377645  0.383533574
     0.429440993  0.310622355  0.116466426
     0.929440993  0.310622355  0.883533574
     0.929440993  0.189377645  0.616466426
     0.570559007  0.810622355  0.616466426
     0.570559007  0.689377645  0.883533574
     0.250000000  0.000000000  0.192323389
     0.250000000  0.500000000  0.307676611
     0.750000000  0.000000000  0.807676611
     0.750000000  0.500000000  0.692323389
     0.034606971  0.717477264  0.984319430
     0.034606971  0.782522736  0.515680570
     0.465393029  0.217477264  0.515680570
     0.465393029  0.282522736  0.984319430
     0.965393029  0.282522736  0.015680570
     0.965393029  0.217477264  0.484319430
     0.534606971  0.782522736  0.484319430
     0.534606971  0.717477264  0.015680570
     0.250000000  0.000000000  0.738982004
     0.250000000  0.500000000  0.761017996
     0.750000000  0.000000000  0.261017996
     0.750000000  0.500000000  0.238982004
     0.250000000  0.000000000  0.314489495
     0.250000000  0.500000000  0.185510505
     0.750000000  0.000000000  0.685510505
     0.750000000  0.500000000  0.814489495
     0.110240460  0.782401031  0.927499413
     0.110240460  0.717598969  0.572500587
     0.389759540  0.282401031  0.572500587
     0.389759540  0.217598969  0.927499413
     0.889759540  0.217598969  0.072500587
     0.889759540  0.282401031  0.427499413
     0.610240460  0.717598969  0.427499413
     0.610240460  0.782401031  0.072500587
     0.832328446  0.918531433  0.073770962
     0.832328446  0.581468567  0.426229038
     0.667671554  0.418531433  0.426229038
     0.667671554  0.081468567  0.073770962
     0.167671554  0.081468567  0.926229038
     0.167671554  0.418531433  0.573770962
     0.332328446  0.581468567  0.573770962
     0.332328446  0.918531433  0.926229038
     0.926018010  0.877922983  0.245342182
     0.926018010  0.622077017  0.254657818
     0.573981990  0.377922983  0.254657818
     0.573981990  0.122077017  0.245342182
     0.073981990  0.122077017  0.754657818
     0.073981990  0.377922983  0.745342182
     0.426018010  0.622077017  0.745342182
     0.426018010  0.877922983  0.754657818
     0.814424732  0.939196108  0.466898637
     0.814424732  0.560803892  0.033101363
     0.685575268  0.439196108  0.033101363
     0.685575268  0.060803892  0.466898637
     0.185575268  0.060803892  0.533101363
     0.185575268  0.439196108  0.966898637
     0.314424732  0.560803892  0.966898637
     0.314424732  0.939196108  0.533101363
     0.844190566  0.926061862  0.186873466
     0.844190566  0.573938138  0.313126534
     0.655809434  0.426061862  0.313126534
     0.655809434  0.073938138  0.186873466
     0.155809434  0.073938138  0.813126534
     0.155809434  0.426061862  0.686873466
     0.344190566  0.573938138  0.686873466
     0.344190566  0.926061862  0.813126534
     0.250000000  0.000000000  0.590624924
     0.250000000  0.500000000  0.909375076
     0.750000000  0.000000000  0.409375076
     0.750000000  0.500000000  0.090624924

  ion indices of the primitive-cell ions
   primitive index   ion index
                 1           1
                 2           2
                 3           3
                 4           4
                 5           5
                 6           6
                 7           7
                 8           8
                 9           9
                10          10
                11          11
                12          12
                13          13
                14          14
                15          15
                16          16
                17          17
                18          18
                19          19
                20          20
                21          21
                22          22
                23          23
                24          24
                25          25
                26          26
                27          27
                28          28
                29          29
                30          30
                31          31
                32          32
                33          33
                34          34
                35          35
                36          36
                37          37
                38          38
                39          39
                40          40
                41          41
                42          42
                43          43
                44          44
                45          45
                46          46
                47          47
                48          48
                49          49
                50          50
                51          51
                52          52
                53          53
                54          54
                55          55
                56          56
                57          57
                58          58
                59          59
                60          60
                61          61
                62          62
                63          63
                64          64
                65          65
                66          66
                67          67
                68          68
                69          69
                70          70
                71          71
                72          72
                73          73
                74          74
                75          75
                76          76
                77          77
                78          78
                79          79
                80          80
                81          81
                82          82
                83          83
                84          84
                85          85
                86          86
                87          87
                88          88
                89          89
                90          90
                91          91
                92          92

----------------------------------------------------------------------------------------

 
 -----------------------------------------------------------------------------
|                                                                             |
|           W    W    AA    RRRRR   N    N  II  N    N   GGGG   !!!           |
|           W    W   A  A   R    R  NN   N  II  NN   N  G    G  !!!           |
|           W    W  A    A  R    R  N N  N  II  N N  N  G       !!!           |
|           W WW W  AAAAAA  RRRRR   N  N N  II  N  N N  G  GGG   !            |
|           WW  WW  A    A  R   R   N   NN  II  N   NN  G    G                |
|           W    W  A    A  R    R  N    N  II  N    N   GGGG   !!!           |
|                                                                             |
|     The requested file  could not be found or opened for reading            |
|     k-point information. Automatic k-point generation is used as a          |
|     fallback, which may lead to unwanted results.                           |
|                                                                             |
 -----------------------------------------------------------------------------

 

Automatic generation of k-mesh.
 Grid dimensions derived from KSPACING:
 generate k-points for:    4    3    4

 Generating k-lattice:

  Cartesian coordinates                     Fractional coordinates (reciprocal lattice)
     0.030212509  0.000000000  0.000000000     0.250000000  0.000000000  0.000000000
     0.000000000  0.028579999  0.000000000     0.000000000  0.333333333  0.000000000
     0.000000000  0.000000000  0.027805156     0.000000000  0.000000000  0.250000000

  Length of vectors
     0.030212509  0.028579999  0.027805156

  Shift w.r.t. Gamma in fractional coordinates (k-lattice)
     0.000000000  0.000000000  0.000000000

 
 Subroutine IBZKPT returns following result:
 ===========================================
 
 Found     18 irreducible k-points:
 
 Following reciprocal coordinates:
            Coordinates               Weight
  0.000000  0.000000  0.000000      1.000000
  0.250000  0.000000  0.000000      2.000000
  0.500000  0.000000  0.000000      1.000000
  0.000000  0.333333  0.000000      2.000000
  0.250000  0.333333  0.000000      4.000000
  0.500000  0.333333  0.000000      2.000000
  0.000000  0.000000  0.250000      2.000000
  0.250000  0.000000  0.250000      4.000000
  0.500000  0.000000  0.250000      2.000000
  0.000000  0.333333  0.250000      4.000000
  0.250000  0.333333  0.250000      8.000000
  0.500000  0.333333  0.250000      4.000000
  0.000000  0.000000  0.500000      1.000000
  0.250000  0.000000  0.500000      2.000000
  0.500000  0.000000  0.500000      1.000000
  0.000000  0.333333  0.500000      2.000000
  0.250000  0.333333  0.500000      4.000000
  0.500000  0.333333  0.500000      2.000000
 
 Following cartesian coordinates:
            Coordinates               Weight
  0.000000  0.000000  0.000000      1.000000
  0.030213  0.000000  0.000000      2.000000
  0.060425  0.000000  0.000000      1.000000
  0.000000  0.028580  0.000000      2.000000
  0.030213  0.028580  0.000000      4.000000
  0.060425  0.028580  0.000000      2.000000
  0.000000  0.000000  0.027805      2.000000
  0.030213  0.000000  0.027805      4.000000
  0.060425  0.000000  0.027805      2.000000
  0.000000  0.028580  0.027805      4.000000
  0.030213  0.028580  0.027805      8.000000
  0.060425  0.028580  0.027805      4.000000
  0.000000  0.000000  0.055610      1.000000
  0.030213  0.000000  0.055610      2.000000
  0.060425  0.000000  0.055610      1.000000
  0.000000  0.028580  0.055610      2.000000
  0.030213  0.028580  0.055610      4.000000
  0.060425  0.028580  0.055610      2.000000
 
 
 Subroutine IBZKPT_HF returns following result:
 ==============================================
 
 Found     48 k-points in 1st BZ
 the following     48 k-points will be used (e.g. in the exchange kernel)
 Following reciprocal coordinates:   # in IRBZ
  0.000000  0.000000  0.000000    0.02083333   1 t-inv F
  0.250000  0.000000  0.000000    0.02083333   2 t-inv F
  0.500000  0.000000  0.000000    0.02083333   3 t-inv F
  0.000000  0.333333  0.000000    0.02083333   4 t-inv F
  0.250000  0.333333  0.000000    0.02083333   5 t-inv F
  0.500000  0.333333  0.000000    0.02083333   6 t-inv F
  0.000000  0.000000  0.250000    0.02083333   7 t-inv F
  0.250000  0.000000  0.250000    0.02083333   8 t-inv F
  0.500000  0.000000  0.250000    0.02083333   9 t-inv F
  0.000000  0.333333  0.250000    0.02083333  10 t-inv F
  0.250000  0.333333  0.250000    0.02083333  11 t-inv F
  0.500000  0.333333  0.250000    0.02083333  12 t-inv F
  0.000000  0.000000  0.500000    0.02083333  13 t-inv F
  0.250000  0.000000  0.500000    0.02083333  14 t-inv F
  0.500000  0.000000  0.500000    0.02083333  15 t-inv F
  0.000000  0.333333  0.500000    0.02083333  16 t-inv F
  0.250000  0.333333  0.500000    0.02083333  17 t-inv F
  0.500000  0.333333  0.500000    0.02083333  18 t-inv F
 -0.250000  0.000000  0.000000    0.02083333   2 t-inv F
  0.000000 -0.333333  0.000000    0.02083333   4 t-inv F
 -0.250000 -0.333333  0.000000    0.02083333   5 t-inv F
 -0.250000  0.333333  0.000000    0.02083333   5 t-inv F
  0.250000 -0.333333  0.000000    0.02083333   5 t-inv F
 -0.500000 -0.333333  0.000000    0.02083333   6 t-inv F
  0.000000  0.000000 -0.250000    0.02083333   7 t-inv F
 -0.250000  0.000000 -0.250000    0.02083333   8 t-inv F
 -0.250000  0.000000  0.250000    0.02083333   8 t-inv F
  0.250000  0.000000 -0.250000    0.02083333   8 t-inv F
 -0.500000  0.000000 -0.250000    0.02083333   9 t-inv F
  0.000000 -0.333333 -0.250000    0.02083333  10 t-inv F
  0.000000  0.333333 -0.250000    0.02083333  10 t-inv F
  0.000000 -0.333333  0.250000    0.02083333  10 t-inv F
 -0.250000 -0.333333 -0.250000    0.02083333  11 t-inv F
 -0.250000  0.333333 -0.250000    0.02083333  11 t-inv F
  0.250000 -0.333333  0.250000    0.02083333  11 t-inv F
 -0.250000 -0.333333  0.250000    0.02083333  11 t-inv F
  0.250000  0.333333 -0.250000    0.02083333  11 t-inv F
  0.250000 -0.333333 -0.250000    0.02083333  11 t-inv F
 -0.250000  0.333333  0.250000    0.02083333  11 t-inv F
 -0.500000 -0.333333 -0.250000    0.02083333  12 t-inv F
 -0.500000  0.333333 -0.250000    0.02083333  12 t-inv F
  0.500000 -0.333333  0.250000    0.02083333  12 t-inv F
 -0.250000  0.000000 -0.500000    0.02083333  14 t-inv F
  0.000000 -0.333333 -0.500000    0.02083333  16 t-inv F
 -0.250000 -0.333333 -0.500000    0.02083333  17 t-inv F
 -0.250000  0.333333 -0.500000    0.02083333  17 t-inv F
  0.250000 -0.333333  0.500000    0.02083333  17 t-inv F
 -0.500000 -0.333333 -0.500000    0.02083333  18 t-inv F


--------------------------------------------------------------------------------------------------------




 Dimension of arrays:
   k-points           NKPTS =     18   k-points in BZ     NKDIM =     18   number of bands    NBANDS=    240
   number of dos      NEDOS =    301   number of ions     NIONS =     92
   non local maximal  LDIM  =      6   non local SUM 2l+1 LMDIM =     18
   total plane-waves  NPLWV = 622080
   max r-space proj   IRMAX =      1   max aug-charges    IRDMAX= 171125
   dimension x,y,z NGX =    72 NGY =  108 NGZ =   80
   dimension x,y,z NGXF=   144 NGYF=  216 NGZF=  160
   support grid    NGXF=   288 NGYF=  432 NGZF=  320
   ions per type =               4  24  16  36  12
   NGX,Y,Z   is equivalent  to a cutoff of  14.47, 15.39, 14.79 a.u.
   NGXF,Y,Z  is equivalent  to a cutoff of  28.93, 30.79, 29.58 a.u.

 SYSTEM =  unknown system                          
 POSCAR =  crystal                                 

 Startparameter for this run:
   NWRITE =      2    write-flag & timer
   PREC   = accura    normal or accurate (medium, high low for compatibility)
   ISTART =      1    job   : 0-new  1-cont  2-samecut
   ICHARG =     11    charge: 1-file 2-atom 10-const
   ISPIN  =      1    spin polarized calculation?
   LNONCOLLINEAR =      F non collinear calculations
   LSORBIT =      F    spin-orbit coupling
   INIWAV =      1    electr: 0-lowe 1-rand  2-diag
   LASPH  =      T    aspherical Exc in radial PAW
   METAGGA=      F    non-selfconsistent MetaGGA calc.

 Electronic Relaxation 1
   ENCUT  =  708.0 eV  52.04 Ry    7.21 a.u.  17.95 25.30 19.51*2*pi/ulx,y,z
   ENINI  =  708.0     initial cutoff
   ENAUG  =  708.0 eV  augmentation charge cutoff
   NELM   =     60;   NELMIN=  2; NELMDL=  0     # of ELM steps 
   EDIFF  = 0.1E-09   stopping-criterion for ELM
   LREAL  =      F    real-space projection
   NLSPLINE    = F    spline interpolate recip. space projectors
   LCOMPAT=      F    compatible to vasp.4.4
   GGA_COMPAT  = F    GGA compatible to vasp.4.4-vasp.4.6
   LMAXPAW     = -100 max onsite density
   LMAXMIX     =    4 max onsite mixed and CHGCAR
   VOSKOWN=      0    Vosko Wilk Nusair interpolation
   ROPT   =    0.00000   0.00000   0.00000   0.00000
   ROPT   =    0.00000
 Ionic relaxation
   EDIFFG = 0.1E-08   stopping-criterion for IOM
   NSW    =      0    number of steps for IOM
   NBLOCK =      1;   KBLOCK =      1    inner block; outer block 
   IBRION =     -1    ionic relax: 0-MD 1-quasi-New 2-CG
   NFREE  =      0    steps in history (QN), initial steepest desc. (CG)
   ISIF   =      2    stress and relaxation
   IWAVPR =     10    prediction:  0-non 1-charg 2-wave 3-comb
   ISYM   =      2    0-nonsym 1-usesym 2-fastsym
   LCORR  =      T    Harris-Foulkes like correction to forces

   POTIM  = 0.5000    time-step for ionic-motion
   TEIN   =    0.0    initial temperature
   TEBEG  =    0.0;   TEEND  =   0.0 temperature during run
   SMASS  =  -3.00    Nose mass-parameter (am)
   estimated Nose-frequenzy (Omega)   =  0.10E-29 period in steps = 0.13E+47 mass=  -0.156E-26a.u.
   SCALEE = 1.0000    scale energy and forces
   NPACO  =    256;   APACO  = 16.0  distance and # of slots for P.C.
   PSTRESS=    0.0 pullay stress

  Mass of Ions in am
   POMASS =  65.39 16.00 12.01  1.00 14.00
  Ionic Valenz
   ZVAL   =  12.00  6.00  4.00  1.00  5.00
  Atomic Wigner-Seitz radii
   RWIGS  =  -1.00 -1.00 -1.00 -1.00 -1.00
  virtual crystal weights 
   VCA    =   1.00  1.00  1.00  1.00  1.00
   NELECT =     352.0000    total number of electrons
   NUPDOWN=      -1.0000    fix difference up-down

 DOS related values:
   EMIN   =  10.00;   EMAX   =-10.00  energy-range for DOS
   EFERMI =   0.00
   ISMEAR =     0;   SIGMA  =   0.05  broadening in eV -4-tet -1-fermi 0-gaus

 Electronic relaxation 2 (details)
   IALGO  =     38    algorithm
   LDIAG  =      T    sub-space diagonalisation (order eigenvalues)
   LSUBROT=      F    optimize rotation matrix (better conditioning)
   TURBO    =      0    0=normal 1=particle mesh
   IRESTART =      0    0=no restart 2=restart with 2 vectors
   NREBOOT  =      0    no. of reboots
   NMIN     =      0    reboot dimension
   EREF     =   0.00    reference energy to select bands
   IMIX   =      4    mixing-type and parameters
     AMIX     =   0.40;   BMIX     =  1.00
     AMIX_MAG =   1.60;   BMIX_MAG =  1.00
     AMIN     =   0.10
     WC   =   100.;   INIMIX=   1;  MIXPRE=   1;  MAXMIX= -45

 Intra band minimization:
   WEIMIN = 0.0000     energy-eigenvalue tresh-hold
   EBREAK =  0.10E-12  absolut break condition
   DEPER  =   0.30     relativ break condition  

   TIME   =   0.40     timestep for ELM

  volume/ion in A,a.u.               =       9.43        63.65
  Fermi-wavevector in a.u.,A,eV,Ry     =   1.211884  2.290128 19.982358  1.468662
  Thomas-Fermi vector in A             =   2.347385
 
 Write flags
   LWAVE        =      T    write WAVECAR
   LDOWNSAMPLE  =      F    k-point downsampling of WAVECAR
   LCHARG       =      T    write CHGCAR
   LVTOT        =      F    write LOCPOT, total local potential
   LVHAR        =      F    write LOCPOT, Hartree potential only
   LELF         =      F    write electronic localiz. function (ELF)
   LORBIT       =     11    0 simple, 1 ext, 2 COOP (PROOUT), +10 PAW based schemes


 Dipole corrections
   LMONO  =      F    monopole corrections only (constant potential shift)
   LDIPOL =      F    correct potential (dipole corrections)
   IDIPOL =      0    1-x, 2-y, 3-z, 4-all directions 
   EPSILON=  1.0000000 bulk dielectric constant

 Exchange correlation treatment:
   GGA     =    --    GGA type
   LEXCH   =     8    internal setting for exchange type
   VOSKOWN=      0    Vosko Wilk Nusair interpolation
   LHFCALC =     F    Hartree Fock is set to
   LHFONE  =     F    Hartree Fock one center treatment
   AEXX    =    0.0000 exact exchange contribution

 Linear response parameters
   LEPSILON=     F    determine dielectric tensor
   LRPA    =     F    only Hartree local field effects (RPA)
   LNABLA  =     F    use nabla operator in PAW spheres
   LVEL    =     F    velocity operator in full k-point grid
   LINTERFAST=   F  fast interpolation
   KINTER  =     0    interpolate to denser k-point grid
   CSHIFT  =0.1000    complex shift for real part using Kramers Kronig
   OMEGAMAX=  -1.0    maximum frequency
   DEG_THRESHOLD= 0.2000000E-02 threshold for treating states as degnerate
   RTIME   =   -0.100 relaxation time in fs
  (WPLASMAI=    0.000 imaginary part of plasma frequency in eV, 0.658/RTIME)
   DFIELD  = 0.0000000 0.0000000 0.0000000 field for delta impulse in time
 
 Orbital magnetization related:
   ORBITALMAG=     F  switch on orbital magnetization
   LCHIMAG   =     F  perturbation theory with respect to B field
   DQ        =  0.001000  dq finite difference perturbation B field
   LLRAUG    =     F  two centre corrections for induced B field

 PEAD related settings:
   LPEAD      =     T    switch on PEAD
   IPEAD      =     4    finite difference order for dpsi/dk
   LCALCPOL   =     T    calculate macroscopic polarization
   LCALCEPS   =     F    calculate dielectric tensor
   EFIELD_PEAD=    0.0000    0.0000    0.0000
   SKIP_EDOTP =     F
   LRPA       =     F
   SKIP_SCF   =     F


--------------------------------------------------------------------------------------------------------


 Static calculation
 charge density and potential remain constant during run
 non-spin polarized calculation
 Variant of blocked Davidson
 Davidson routine will perform the subspace rotation
 perform sub-space diagonalisation
    after iterative eigenvector-optimisation
 no mixing
 using additional bands           64
 reciprocal scheme for non local part
 use partial core corrections
 calculate Harris-corrections to forces 
   (improved forces if not selfconsistent)
 use gradient corrections 
 WARNING: stress and forces are not correct
  (second derivative of E(xc) not defined)
 use of overlap-Matrix (Vanderbilt PP)
 Gauss-broadening in eV      SIGMA  =   0.05


--------------------------------------------------------------------------------------------------------


  energy-cutoff  :      708.00
  volume of cell :      867.73
      direct lattice vectors                 reciprocal lattice vectors
     8.274718333  0.000000000  0.000000000     0.120850035  0.000000000  0.000000000
     0.000000000 11.663168282  0.000000000     0.000000000  0.085739996  0.000000000
     0.000000000  0.000000000  8.991138186     0.000000000  0.000000000  0.111220624

  length of vectors
     8.274718333 11.663168282  8.991138186     0.120850035  0.085739996  0.111220624


 
 old parameters found on file WAVECAR:
  energy-cutoff  :      708.00
  volume of cell :      867.73
      direct lattice vectors                 reciprocal lattice vectors
     8.274718333  0.000000000  0.000000000     0.120850035  0.000000000  0.000000000
     0.000000000 11.663168282  0.000000000     0.000000000  0.085739996  0.000000000
     0.000000000  0.000000000  8.991138186     0.000000000  0.000000000  0.111220624

  length of vectors

 
 k-points in units of 2pi/SCALE and weight: read from INCAR                         
   0.00000000  0.00000000  0.00000000       0.021
   0.03021251  0.00000000  0.00000000       0.042
   0.06042502  0.00000000  0.00000000       0.021
   0.00000000  0.02858000  0.00000000       0.042
   0.03021251  0.02858000  0.00000000       0.083
   0.06042502  0.02858000  0.00000000       0.042
   0.00000000  0.00000000  0.02780516       0.042
   0.03021251  0.00000000  0.02780516       0.083
   0.06042502  0.00000000  0.02780516       0.042
   0.00000000  0.02858000  0.02780516       0.083
   0.03021251  0.02858000  0.02780516       0.167
   0.06042502  0.02858000  0.02780516       0.083
   0.00000000  0.00000000  0.05561031       0.021
   0.03021251  0.00000000  0.05561031       0.042
   0.06042502  0.00000000  0.05561031       0.021
   0.00000000  0.02858000  0.05561031       0.042
   0.03021251  0.02858000  0.05561031       0.083
   0.06042502  0.02858000  0.05561031       0.042
 
 k-points in reciprocal lattice and weights: read from INCAR                         
   0.00000000  0.00000000  0.00000000       0.021
   0.25000000  0.00000000  0.00000000       0.042
   0.50000000  0.00000000  0.00000000       0.021
   0.00000000  0.33333333  0.00000000       0.042
   0.25000000  0.33333333  0.00000000       0.083
   0.50000000  0.33333333  0.00000000       0.042
   0.00000000  0.00000000  0.25000000       0.042
   0.25000000  0.00000000  0.25000000       0.083
   0.50000000  0.00000000  0.25000000       0.042
   0.00000000  0.33333333  0.25000000       0.083
   0.25000000  0.33333333  0.25000000       0.167
   0.50000000  0.33333333  0.25000000       0.083
   0.00000000  0.00000000  0.50000000       0.021
   0.25000000  0.00000000  0.50000000       0.042
   0.50000000  0.00000000  0.50000000       0.021
   0.00000000  0.33333333  0.50000000       0.042
   0.25000000  0.33333333  0.50000000       0.083
   0.50000000  0.33333333  0.50000000       0.042
 
 position of ions in fractional coordinates (direct lattice) 
   0.23166354  0.25000000  0.25000000
   0.26833646  0.75000000  0.25000000
   0.76833646  0.75000000  0.75000000
   0.73166354  0.25000000  0.75000000
   0.76927200  0.90480155  0.87396622
   0.76927200  0.59519845  0.62603378
   0.73072800  0.40480155  0.62603378
   0.73072800  0.09519845  0.87396622
   0.23072800  0.09519845  0.12603378
   0.23072800  0.40480155  0.37396622
   0.26927200  0.59519845  0.37396622
   0.26927200  0.90480155  0.12603378
   0.91546573  0.67500277  0.91415921
   0.91546573  0.82499723  0.58584079
   0.58453427  0.17500277  0.58584079
   0.58453427  0.32499723  0.91415921
   0.08453427  0.32499723  0.08584079
   0.08453427  0.17500277  0.41415921
   0.41546573  0.82499723  0.41415921
   0.41546573  0.67500277  0.08584079
   0.07055901  0.68937765  0.11646643
   0.07055901  0.81062235  0.38353357
   0.42944099  0.18937765  0.38353357
   0.42944099  0.31062235  0.11646643
   0.92944099  0.31062235  0.88353357
   0.92944099  0.18937765  0.61646643
   0.57055901  0.81062235  0.61646643
   0.57055901  0.68937765  0.88353357
   0.25000000  0.00000000  0.19232339
   0.25000000  0.50000000  0.30767661
   0.75000000  0.00000000  0.80767661
   0.75000000  0.50000000  0.69232339
   0.03460697  0.71747726  0.98431943
   0.03460697  0.78252274  0.51568057
   0.46539303  0.21747726  0.51568057
   0.46539303  0.28252274  0.98431943
   0.96539303  0.28252274  0.01568057
   0.96539303  0.21747726  0.48431943
   0.53460697  0.78252274  0.48431943
   0.53460697  0.71747726  0.01568057
   0.25000000  0.00000000  0.73898200
   0.25000000  0.50000000  0.76101800
   0.75000000  0.00000000  0.26101800
   0.75000000  0.50000000  0.23898200
   0.25000000  0.00000000  0.31448950
   0.25000000  0.50000000  0.18551050
   0.75000000  0.00000000  0.68551050
   0.75000000  0.50000000  0.81448950
   0.11024046  0.78240103  0.92749941
   0.11024046  0.71759897  0.57250059
   0.38975954  0.28240103  0.57250059
   0.38975954  0.21759897  0.92749941
   0.88975954  0.21759897  0.07250059
   0.88975954  0.28240103  0.42749941
   0.61024046  0.71759897  0.42749941
   0.61024046  0.78240103  0.07250059
   0.83232845  0.91853143  0.07377096
   0.83232845  0.58146857  0.42622904
   0.66767155  0.41853143  0.42622904
   0.66767155  0.08146857  0.07377096
   0.16767155  0.08146857  0.92622904
   0.16767155  0.41853143  0.57377096
   0.33232845  0.58146857  0.57377096
   0.33232845  0.91853143  0.92622904
   0.92601801  0.87792298  0.24534218
   0.92601801  0.62207702  0.25465782
   0.57398199  0.37792298  0.25465782
   0.57398199  0.12207702  0.24534218
   0.07398199  0.12207702  0.75465782
   0.07398199  0.37792298  0.74534218
   0.42601801  0.62207702  0.74534218
   0.42601801  0.87792298  0.75465782
   0.81442473  0.93919611  0.46689864
   0.81442473  0.56080389  0.03310136
   0.68557527  0.43919611  0.03310136
   0.68557527  0.06080389  0.46689864
   0.18557527  0.06080389  0.53310136
   0.18557527  0.43919611  0.96689864
   0.31442473  0.56080389  0.96689864
   0.31442473  0.93919611  0.53310136
   0.84419057  0.92606186  0.18687347
   0.84419057  0.57393814  0.31312653
   0.65580943  0.42606186  0.31312653
   0.65580943  0.07393814  0.18687347
   0.15580943  0.07393814  0.81312653
   0.15580943  0.42606186  0.68687347
   0.34419057  0.57393814  0.68687347
   0.34419057  0.92606186  0.81312653
   0.25000000  0.00000000  0.59062492
   0.25000000  0.50000000  0.90937508
   0.75000000  0.00000000  0.40937508
   0.75000000  0.50000000  0.09062492
 
 position of ions in cartesian coordinates  (Angst):
   1.91695056  2.91579207  2.24778455
   2.22040861  8.74737621  2.24778455
   6.35776778  8.74737621  6.74335364
   6.05430972  2.91579207  6.74335364
   6.36550911 10.55285268  7.85795107
   6.36550911  6.94189974  5.62875621
   6.04656839  4.72126854  5.62875621
   6.04656839  1.11031560  7.85795107
   1.90920922  1.11031560  1.13318712
   1.90920922  4.72126854  3.36238198
   2.22814995  6.94189974  3.36238198
   2.22814995 10.55285268  1.13318712
   7.57522105  7.87267085  8.21933177
   7.57522105  9.62208157  5.26737551
   4.83685645  2.04108671  5.26737551
   4.83685645  3.79049743  8.21933177
   0.69949728  3.79049743  0.77180642
   0.69949728  2.04108671  3.72376267
   3.43786189  9.62208157  3.72376267
   3.43786189  7.87267085  0.77180642
   0.58385591  8.04032749  1.04716573
   0.58385591  9.45442494  3.44840336
   3.55350326  2.20874335  3.44840336
   3.55350326  3.62284080  1.04716573
   7.69086242  3.62284080  7.94397246
   7.69086242  2.20874335  5.54273482
   4.72121508  9.45442494  5.54273482
   4.72121508  8.04032749  7.94397246
   2.06867958  0.00000000  1.72920616
   2.06867958  5.83158414  2.76636293
   6.20603875  0.00000000  7.26193202
   6.20603875  5.83158414  6.22477526
   0.28636294  8.36805807  8.85015202
   0.28636294  9.12669436  4.63655526
   3.85099623  2.53647392  4.63655526
   3.85099623  3.29511022  8.85015202
   7.98835539  3.29511022  0.14098617
   7.98835539  2.53647392  4.35458292
   4.42372211  9.12669436  4.35458292
   4.42372211  8.36805807  0.14098617
   2.06867958  0.00000000  6.64428932
   2.06867958  5.83158414  6.84241796
   6.20603875  0.00000000  2.34684887
   6.20603875  5.83158414  2.14872022
   2.06867958  0.00000000  2.82761851
   2.06867958  5.83158414  1.66795058
   6.20603875  0.00000000  6.16351968
   6.20603875  5.83158414  7.32318760
   0.91220875  9.12527489  8.33927539
   0.91220875  8.36947753  5.14743189
   3.22515041  3.29369075  5.14743189
   3.22515041  2.53789339  8.33927539
   7.36250958  2.53789339  0.65186280
   7.36250958  3.29369075  3.84370629
   5.04956792  8.36947753  3.84370629
   5.04956792  9.12527489  0.65186280
   6.88728345 10.71298668  0.66328491
   6.88728345  6.78176575  3.83228418
   5.52479405  4.88140254  3.83228418
   5.52479405  0.95018160  0.66328491
   1.38743488  0.95018160  8.32785328
   1.38743488  4.88140254  5.15885400
   2.74992428  6.78176575  5.15885400
   2.74992428 10.71298668  8.32785328
   7.66253821 10.23936349  2.20590546
   7.66253821  7.25538893  2.28966363
   4.74953929  4.40777935  2.28966363
   4.74953929  1.42380479  2.20590546
   0.61218013  1.42380479  6.78523272
   0.61218013  4.40777935  6.70147456
   3.52517904  7.25538893  6.70147456
   3.52517904 10.23936349  6.78523272
   6.73913526 10.95400225  4.19795016
   6.73913526  6.54075017  0.29761893
   5.67294224  5.12241811  0.29761893
   5.67294224  0.70916603  4.19795016
   1.53558308  0.70916603  4.79318802
   1.53558308  5.12241811  8.69351926
   2.60177609  6.54075017  8.69351926
   2.60177609 10.95400225  4.79318802
   6.98543915 10.80081534  1.68020516
   6.98543915  6.69393709  2.81536394
   5.42663835  4.96923120  2.81536394
   5.42663835  0.86235294  1.68020516
   1.28927918  0.86235294  7.31093303
   1.28927918  4.96923120  6.17577425
   2.84807999  6.69393709  6.17577425
   2.84807999 10.80081534  7.31093303
   2.06867958  0.00000000  5.31039031
   2.06867958  5.83158414  8.17631697
   6.20603875  0.00000000  3.68074788
   6.20603875  5.83158414  0.81482121
 


--------------------------------------------------------------------------------------------------------


 k-point   1 :   0.0000 0.0000 0.0000  plane waves:   37087
 k-point   2 :   0.2500 0.0000 0.0000  plane waves:   37172
 k-point   3 :   0.5000 0.0000 0.0000  plane waves:   37092
 k-point   4 :   0.0000 0.3333 0.0000  plane waves:   37124
 k-point   5 :   0.2500 0.3333 0.0000  plane waves:   37142
 k-point   6 :   0.5000 0.3333 0.0000  plane waves:   37144
 k-point   7 :   0.0000 0.0000 0.2500  plane waves:   37079
 k-point   8 :   0.2500 0.0000 0.2500  plane waves:   37130
 k-point   9 :   0.5000 0.0000 0.2500  plane waves:   37118
 k-point  10 :   0.0000 0.3333 0.2500  plane waves:   37108
 k-point  11 :   0.2500 0.3333 0.2500  plane waves:   37128
 k-point  12 :   0.5000 0.3333 0.2500  plane waves:   37130
 k-point  13 :   0.0000 0.0000 0.5000  plane waves:   37032
 k-point  14 :   0.2500 0.0000 0.5000  plane waves:   37108
 k-point  15 :   0.5000 0.0000 0.5000  plane waves:   37208
 k-point  16 :   0.0000 0.3333 0.5000  plane waves:   37052
 k-point  17 :   0.2500 0.3333 0.5000  plane waves:   37104
 k-point  18 :   0.5000 0.3333 0.5000  plane waves:   37096

 maximum and minimum number of plane-waves per node :     37208    37032

 maximum number of plane-waves:     37208
 maximum index in each direction: 
   IXMAX=   17   IYMAX=   25   IZMAX=   19
   IXMIN=  -18   IYMIN=  -25   IZMIN=  -20


 serial   3D FFT for wavefunctions
 parallel 3D FFT for charge:
    minimum data exchange during FFTs selected (reduces bandwidth)


 total amount of memory used by VASP MPI-rank0   722727. kBytes
=======================================================================

   base      :      30000. kBytes
   nonl-proj :     537303. kBytes
   fftplans  :      27658. kBytes
   grid      :      38969. kBytes
   one-center:       1430. kBytes
   wavefun   :      87367. kBytes
 
     INWAV:  cpu time    5.9369: real time    8.9297
 initial charge density was supplied:
 number of electron     352.0000003 magnetization 
 keeping initial charge density in first step


--------------------------------------------------------------------------------------------------------


 Maximum index for augmentation-charges         5940 (set IRDMAX)


--------------------------------------------------------------------------------------------------------


 First call to EWALD:  gamma=   0.186
 Maximum number of real-space cells 3x 2x 3
 Maximum number of reciprocal cells 2x 3x 3

    FEWALD:  cpu time    0.0027: real time    0.0027


--------------------------------------- Iteration      1(   1)  ---------------------------------------


    POTLOK:  cpu time    0.1258: real time    0.1409
    SETDIJ:  cpu time    0.2822: real time    0.2895
     EDDAV:  cpu time   30.1775: real time   30.2864
       DOS:  cpu time    0.0031: real time    0.0059
    --------------------------------------------
      LOOP:  cpu time   30.5886: real time   30.7227

 eigenvalue-minimisations  :  9390
 total energy-change (2. order) :-0.5563463E+03  (-0.5379144E+02)
 number of electron     352.0000003 magnetization 
 augmentation part      352.0000003 magnetization 

 Free energy of the ion-electron system (eV)
  ---------------------------------------------------
  alpha Z        PSCENC =       713.26070511
  Ewald energy   TEWEN  =    -11751.65468487
  -Hartree energ DENC   =    -10728.78398885
  -exchange      EXHF   =         0.00000000
  -V(xc)+E(xc)   XCENC  =      1484.31764213
  PAW double counting   =     32286.99129119   -33075.62677994
  entropy T*S    EENTRO =        -0.00000000
  eigenvalues    EBANDS =     -2835.60816520
  atomic energy  EATOM  =     23350.75763622
  Solvation  Ediel_sol  =         0.00000000
  ---------------------------------------------------
  free energy    TOTEN  =      -556.34634421 eV

  energy without entropy =     -556.34634421  energy(sigma->0) =     -556.34634421


--------------------------------------------------------------------------------------------------------




--------------------------------------- Iteration      1(   2)  ---------------------------------------


     EDDAV:  cpu time   32.2447: real time   32.3429
       DOS:  cpu time    0.0011: real time    0.0011
    --------------------------------------------
      LOOP:  cpu time   32.2459: real time   32.3440

 eigenvalue-minimisations  : 10650
 total energy-change (2. order) :-0.3443016E+01  (-0.3440469E+01)
 number of electron     352.0000003 magnetization 
 augmentation part      352.0000003 magnetization 

 Free energy of the ion-electron system (eV)
  ---------------------------------------------------
  alpha Z        PSCENC =       713.26070511
  Ewald energy   TEWEN  =    -11751.65468487
  -Hartree energ DENC   =    -10728.78398885
  -exchange      EXHF   =         0.00000000
  -V(xc)+E(xc)   XCENC  =      1484.31764213
  PAW double counting   =     32286.99129119   -33075.62677994
  entropy T*S    EENTRO =        -0.00000000
  eigenvalues    EBANDS =     -2839.05118132
  atomic energy  EATOM  =     23350.75763622
  Solvation  Ediel_sol  =         0.00000000
  ---------------------------------------------------
  free energy    TOTEN  =      -559.78936033 eV

  energy without entropy =     -559.78936033  energy(sigma->0) =     -559.78936033


--------------------------------------------------------------------------------------------------------




--------------------------------------- Iteration      1(   3)  ---------------------------------------


     EDDAV:  cpu time   35.2576: real time   35.3564
       DOS:  cpu time    0.0007: real time    0.0007
    --------------------------------------------
      LOOP:  cpu time   35.2583: real time   35.3572

 eigenvalue-minimisations  : 11820
 total energy-change (2. order) :-0.6296613E-01  (-0.6296082E-01)
 number of electron     352.0000003 magnetization 
 augmentation part      352.0000003 magnetization 

 Free energy of the ion-electron system (eV)
  ---------------------------------------------------
  alpha Z        PSCENC =       713.26070511
  Ewald energy   TEWEN  =    -11751.65468487
  -Hartree energ DENC   =    -10728.78398885
  -exchange      EXHF   =         0.00000000
  -V(xc)+E(xc)   XCENC  =      1484.31764213
  PAW double counting   =     32286.99129119   -33075.62677994
  entropy T*S    EENTRO =        -0.00000000
  eigenvalues    EBANDS =     -2839.11414745
  atomic energy  EATOM  =     23350.75763622
  Solvation  Ediel_sol  =         0.00000000
  ---------------------------------------------------
  free energy    TOTEN  =      -559.85232646 eV

  energy without entropy =     -559.85232646  energy(sigma->0) =     -559.85232646


--------------------------------------------------------------------------------------------------------




--------------------------------------- Iteration      1(   4)  ---------------------------------------


     EDDAV:  cpu time   31.4653: real time   31.5517
       DOS:  cpu time    0.0011: real time    0.0011
    --------------------------------------------
      LOOP:  cpu time   31.4664: real time   31.5528

 eigenvalue-minimisations  : 10530
 total energy-change (2. order) :-0.1385700E-02  (-0.1385623E-02)
 number of electron     352.0000003 magnetization 
 augmentation part      352.0000003 magnetization 

 Free energy of the ion-electron system (eV)
  ---------------------------------------------------
  alpha Z        PSCENC =       713.26070511
  Ewald energy   TEWEN  =    -11751.65468487
  -Hartree energ DENC   =    -10728.78398885
  -exchange      EXHF   =         0.00000000
  -V(xc)+E(xc)   XCENC  =      1484.31764213
  PAW double counting   =     32286.99129119   -33075.62677994
  entropy T*S    EENTRO =        -0.00000000
  eigenvalues    EBANDS =     -2839.11553315
  atomic energy  EATOM  =     23350.75763622
  Solvation  Ediel_sol  =         0.00000000
  ---------------------------------------------------
  free energy    TOTEN  =      -559.85371216 eV

  energy without entropy =     -559.85371216  energy(sigma->0) =     -559.85371216


--------------------------------------------------------------------------------------------------------




--------------------------------------- Iteration      1(   5)  ---------------------------------------


     EDDAV:  cpu time   34.8448: real time   34.9421
       DOS:  cpu time    0.0007: real time    0.0007
    --------------------------------------------
      LOOP:  cpu time   34.8455: real time   34.9429

 eigenvalue-minimisations  : 11640
 total energy-change (2. order) :-0.6201338E-04  (-0.6201256E-04)
 number of electron     352.0000003 magnetization 
 augmentation part      352.0000003 magnetization 

 Free energy of the ion-electron system (eV)
  ---------------------------------------------------
  alpha Z        PSCENC =       713.26070511
  Ewald energy   TEWEN  =    -11751.65468487
  -Hartree energ DENC   =    -10728.78398885
  -exchange      EXHF   =         0.00000000
  -V(xc)+E(xc)   XCENC  =      1484.31764213
  PAW double counting   =     32286.99129119   -33075.62677994
  entropy T*S    EENTRO =        -0.00000000
  eigenvalues    EBANDS =     -2839.11559516
  atomic energy  EATOM  =     23350.75763622
  Solvation  Ediel_sol  =         0.00000000
  ---------------------------------------------------
  free energy    TOTEN  =      -559.85377417 eV

  energy without entropy =     -559.85377417  energy(sigma->0) =     -559.85377417


--------------------------------------------------------------------------------------------------------




--------------------------------------- Iteration      1(   6)  ---------------------------------------


     EDDAV:  cpu time   31.7942: real time   31.8825
       DOS:  cpu time    0.0007: real time    0.0007
    --------------------------------------------
      LOOP:  cpu time   31.7949: real time   31.8832

 eigenvalue-minimisations  : 10620
 total energy-change (2. order) :-0.2347748E-05  (-0.2347929E-05)
 number of electron     352.0000003 magnetization 
 augmentation part      352.0000003 magnetization 

 Free energy of the ion-electron system (eV)
  ---------------------------------------------------
  alpha Z        PSCENC =       713.26070511
  Ewald energy   TEWEN  =    -11751.65468487
  -Hartree energ DENC   =    -10728.78398885
  -exchange      EXHF   =         0.00000000
  -V(xc)+E(xc)   XCENC  =      1484.31764213
  PAW double counting   =     32286.99129119   -33075.62677994
  entropy T*S    EENTRO =        -0.00000000
  eigenvalues    EBANDS =     -2839.11559751
  atomic energy  EATOM  =     23350.75763622
  Solvation  Ediel_sol  =         0.00000000
  ---------------------------------------------------
  free energy    TOTEN  =      -559.85377652 eV

  energy without entropy =     -559.85377652  energy(sigma->0) =     -559.85377652


--------------------------------------------------------------------------------------------------------




--------------------------------------- Iteration      1(   7)  ---------------------------------------


     EDDAV:  cpu time   34.4573: real time   35.0326
       DOS:  cpu time    0.0053: real time    0.0053
    --------------------------------------------
      LOOP:  cpu time   34.4626: real time   35.0379

 eigenvalue-minimisations  : 11190
 total energy-change (2. order) :-0.1227017E-06  (-0.1225698E-06)
 number of electron     352.0000003 magnetization 
 augmentation part      352.0000003 magnetization 

 Free energy of the ion-electron system (eV)
  ---------------------------------------------------
  alpha Z        PSCENC =       713.26070511
  Ewald energy   TEWEN  =    -11751.65468487
  -Hartree energ DENC   =    -10728.78398885
  -exchange      EXHF   =         0.00000000
  -V(xc)+E(xc)   XCENC  =      1484.31764213
  PAW double counting   =     32286.99129119   -33075.62677994
  entropy T*S    EENTRO =        -0.00000000
  eigenvalues    EBANDS =     -2839.11559763
  atomic energy  EATOM  =     23350.75763622
  Solvation  Ediel_sol  =         0.00000000
  ---------------------------------------------------
  free energy    TOTEN  =      -559.85377665 eV
[...]
   -.310E+02 -.385E+02 0.371E+02   0.342E+02 0.424E+02 -.397E+02   -.325E+01 -.393E+01 0.262E+01   0.217E-03 0.969E-04 -.530E-04
   -.310E+02 0.385E+02 -.371E+02   0.342E+02 -.424E+02 0.397E+02   -.325E+01 0.393E+01 -.262E+01   0.217E-03 -.969E-04 0.530E-04
   0.310E+02 -.385E+02 -.371E+02   -.342E+02 0.424E+02 0.397E+02   0.325E+01 -.393E+01 -.262E+01   -.217E-03 0.969E-04 0.530E-04
   0.310E+02 0.385E+02 0.371E+02   -.342E+02 -.424E+02 -.397E+02   0.325E+01 0.393E+01 0.262E+01   -.217E-03 -.969E-04 -.530E-04
   0.310E+02 0.385E+02 -.371E+02   -.342E+02 -.424E+02 0.397E+02   0.325E+01 0.393E+01 -.262E+01   -.217E-03 -.969E-04 0.530E-04
   0.310E+02 -.385E+02 0.371E+02   -.342E+02 0.424E+02 -.397E+02   0.325E+01 -.393E+01 0.262E+01   -.217E-03 0.969E-04 -.530E-04
   -.310E+02 0.385E+02 0.371E+02   0.342E+02 -.424E+02 -.397E+02   -.325E+01 0.393E+01 0.262E+01   0.217E-03 -.969E-04 -.530E-04
   -.310E+02 -.385E+02 -.371E+02   0.342E+02 0.424E+02 0.397E+02   -.325E+01 -.393E+01 -.262E+01   0.217E-03 0.969E-04 0.530E-04
   -.297E+01 0.565E+01 0.421E+02   0.228E+01 -.633E+01 -.493E+02   0.670E+00 0.692E+00 0.722E+01   -.127E-03 -.233E-03 0.910E-04
   -.297E+01 -.565E+01 -.421E+02   0.228E+01 0.633E+01 0.493E+02   0.670E+00 -.692E+00 -.722E+01   -.127E-03 0.233E-03 -.910E-04
   0.297E+01 0.565E+01 -.421E+02   -.228E+01 -.633E+01 0.493E+02   -.670E+00 0.692E+00 -.722E+01   0.127E-03 -.233E-03 -.910E-04
   0.297E+01 -.565E+01 0.421E+02   -.228E+01 0.633E+01 -.493E+02   -.670E+00 -.692E+00 0.722E+01   0.127E-03 0.233E-03 0.910E-04
   0.297E+01 -.565E+01 -.421E+02   -.228E+01 0.633E+01 0.493E+02   -.670E+00 -.692E+00 -.722E+01   0.127E-03 0.233E-03 -.910E-04
   0.297E+01 0.565E+01 0.421E+02   -.228E+01 -.633E+01 -.493E+02   -.670E+00 0.692E+00 0.722E+01   0.127E-03 -.233E-03 0.910E-04
   -.297E+01 -.565E+01 0.421E+02   0.228E+01 0.633E+01 -.493E+02   0.670E+00 -.692E+00 0.722E+01   -.127E-03 0.233E-03 0.910E-04
   -.297E+01 0.565E+01 -.421E+02   0.228E+01 -.633E+01 0.493E+02   0.670E+00 0.692E+00 -.722E+01   -.127E-03 -.233E-03 -.910E-04
   -.218E+02 0.258E+02 -.147E+02   0.266E+02 -.298E+02 0.184E+02   -.488E+01 0.403E+01 -.370E+01   -.838E-04 -.976E-04 0.437E-03
   -.218E+02 -.258E+02 0.147E+02   0.266E+02 0.298E+02 -.184E+02   -.488E+01 -.403E+01 0.370E+01   -.838E-04 0.976E-04 -.437E-03
   0.218E+02 0.258E+02 0.147E+02   -.266E+02 -.298E+02 -.184E+02   0.488E+01 0.403E+01 0.370E+01   0.838E-04 -.976E-04 -.437E-03
   0.218E+02 -.258E+02 -.147E+02   -.266E+02 0.298E+02 0.184E+02   0.488E+01 -.403E+01 -.370E+01   0.838E-04 0.976E-04 0.437E-03
   0.218E+02 -.258E+02 0.147E+02   -.266E+02 0.298E+02 -.184E+02   0.488E+01 -.403E+01 0.370E+01   0.838E-04 0.976E-04 -.437E-03
   0.218E+02 0.258E+02 -.147E+02   -.266E+02 -.298E+02 0.184E+02   0.488E+01 0.403E+01 -.370E+01   0.838E-04 -.976E-04 0.437E-03
   -.218E+02 -.258E+02 -.147E+02   0.266E+02 0.298E+02 0.184E+02   -.488E+01 -.403E+01 -.370E+01   -.838E-04 0.976E-04 0.437E-03
   -.218E+02 0.258E+02 0.147E+02   0.266E+02 -.298E+02 -.184E+02   -.488E+01 0.403E+01 0.370E+01   -.838E-04 -.976E-04 -.437E-03
   -.246E+02 0.256E+02 -.210E+02   0.283E+02 -.306E+02 0.247E+02   -.373E+01 0.497E+01 -.374E+01   -.515E-04 0.110E-03 -.424E-04
   -.246E+02 -.256E+02 0.210E+02   0.283E+02 0.306E+02 -.247E+02   -.373E+01 -.497E+01 0.374E+01   -.515E-04 -.110E-03 0.424E-04
   0.246E+02 0.256E+02 0.210E+02   -.283E+02 -.306E+02 -.247E+02   0.373E+01 0.497E+01 0.374E+01   0.515E-04 0.110E-03 0.424E-04
   0.246E+02 -.256E+02 -.210E+02   -.283E+02 0.306E+02 0.247E+02   0.373E+01 -.497E+01 -.374E+01   0.515E-04 -.110E-03 -.424E-04
   0.246E+02 -.256E+02 0.210E+02   -.283E+02 0.306E+02 -.247E+02   0.373E+01 -.497E+01 0.374E+01   0.515E-04 -.110E-03 0.424E-04
   0.246E+02 0.256E+02 -.210E+02   -.283E+02 -.306E+02 0.247E+02   0.373E+01 0.497E+01 -.374E+01   0.515E-04 0.110E-03 -.424E-04
   -.246E+02 -.256E+02 -.210E+02   0.283E+02 0.306E+02 0.247E+02   -.373E+01 -.497E+01 -.374E+01   -.515E-04 -.110E-03 -.424E-04
   -.246E+02 0.256E+02 0.210E+02   0.283E+02 -.306E+02 -.247E+02   -.373E+01 0.497E+01 0.374E+01   -.515E-04 0.110E-03 0.424E-04
   -.421E+02 0.605E+02 0.601E+02   0.468E+02 -.655E+02 -.641E+02   -.471E+01 0.503E+01 0.400E+01   -.175E-02 -.679E-03 0.358E-02
   -.421E+02 -.605E+02 -.601E+02   0.468E+02 0.655E+02 0.641E+02   -.471E+01 -.503E+01 -.400E+01   -.175E-02 0.679E-03 -.358E-02
   0.421E+02 0.605E+02 -.601E+02   -.468E+02 -.655E+02 0.641E+02   0.471E+01 0.503E+01 -.400E+01   0.175E-02 -.679E-03 -.358E-02
   0.421E+02 -.605E+02 0.601E+02   -.468E+02 0.655E+02 -.641E+02   0.471E+01 -.503E+01 0.400E+01   0.175E-02 0.679E-03 0.358E-02
   0.421E+02 -.605E+02 -.601E+02   -.468E+02 0.655E+02 0.641E+02   0.471E+01 -.503E+01 -.400E+01   0.175E-02 0.679E-03 -.358E-02
   0.421E+02 0.605E+02 0.601E+02   -.468E+02 -.655E+02 -.641E+02   0.471E+01 0.503E+01 0.400E+01   0.175E-02 -.679E-03 0.358E-02
   -.421E+02 -.605E+02 0.601E+02   0.468E+02 0.655E+02 -.641E+02   -.471E+01 -.503E+01 0.400E+01   -.175E-02 0.679E-03 0.358E-02
   -.421E+02 0.605E+02 -.601E+02   0.468E+02 -.655E+02 0.641E+02   -.471E+01 0.503E+01 -.400E+01   -.175E-02 -.679E-03 -.358E-02
   0.815E-08 -.341E-08 0.682E+02   0.139E-13 0.461E-12 -.761E+02   0.109E-20 0.167E-20 0.791E+01   0.293E-10 0.107E-10 -.171E-03
   0.817E-08 -.343E-08 -.682E+02   0.149E-14 -.489E-12 0.761E+02   0.256E-20 0.162E-20 -.791E+01   -.250E-10 -.367E-10 0.171E-03
   -.823E-08 0.341E-08 -.682E+02   -.286E-13 0.457E-12 0.761E+02   0.294E-20 -.156E-20 -.791E+01   -.270E-10 -.436E-11 0.171E-03
   -.827E-08 0.344E-08 0.682E+02   -.316E-13 -.453E-12 -.761E+02   -.803E-21 0.218E-21 0.791E+01   0.251E-10 0.361E-10 -.171E-03
 -----------------------------------------------------------------------------------------------
   -.269E-08 0.146E-09 0.464E-09   0.760E-13 -.109E-12 -.142E-12   -.444E-14 0.115E-13 0.888E-14   -.282E-09 -.575E-11 -.772E-10
 
 
 POSITION                                       TOTAL-FORCE (eV/Angst)
 -----------------------------------------------------------------------------------
      1.91695      2.91579      2.24778        -0.000046      0.000000     -0.000000
      2.22041      8.74738      2.24778         0.000046      0.000000     -0.000000
      6.35777      8.74738      6.74335         0.000046      0.000000     -0.000000
      6.05431      2.91579      6.74335        -0.000046      0.000000     -0.000000
      6.36551     10.55285      7.85795         0.000029      0.001989      0.000272
      6.36551      6.94190      5.62876         0.000029     -0.001989     -0.000272
      6.04657      4.72127      5.62876        -0.000029      0.001989     -0.000272
      6.04657      1.11032      7.85795        -0.000029     -0.001989      0.000272
      1.90921      1.11032      1.13319        -0.000029     -0.001989     -0.000272
      1.90921      4.72127      3.36238        -0.000029      0.001989      0.000272
      2.22815      6.94190      3.36238         0.000029     -0.001989      0.000272
      2.22815     10.55285      1.13319         0.000029      0.001989     -0.000272
      7.57522      7.87267      8.21933         0.003622     -0.000142     -0.002451
      7.57522      9.62208      5.26738         0.003622      0.000142      0.002451
      4.83686      2.04109      5.26738        -0.003622     -0.000142      0.002451
      4.83686      3.79050      8.21933        -0.003622      0.000142     -0.002451
      0.69950      3.79050      0.77181        -0.003622      0.000142      0.002451
      0.69950      2.04109      3.72376        -0.003622     -0.000142     -0.002451
      3.43786      9.62208      3.72376         0.003622      0.000142     -0.002451
      3.43786      7.87267      0.77181         0.003622     -0.000142      0.002451
      0.58386      8.04033      1.04717        -0.001233     -0.000030      0.001138
      0.58386      9.45442      3.44840        -0.001233      0.000030     -0.001138
      3.55350      2.20874      3.44840         0.001233     -0.000030     -0.001138
      3.55350      3.62284      1.04717         0.001233      0.000030      0.001138
      7.69086      3.62284      7.94397         0.001233      0.000030     -0.001138
      7.69086      2.20874      5.54273         0.001233     -0.000030      0.001138
      4.72122      9.45442      5.54273        -0.001233      0.000030      0.001138
      4.72122      8.04033      7.94397        -0.001233     -0.000030     -0.001138
      2.06868      0.00000      1.72921        -0.000000      0.000000      0.000368
      2.06868      5.83158      2.76636        -0.000000      0.000000     -0.000368
      6.20604      0.00000      7.26193        -0.000000      0.000000     -0.000368
      6.20604      5.83158      6.22478        -0.000000      0.000000      0.000368
      0.28636      8.36806      8.85015         0.001277     -0.000401      0.001727
      0.28636      9.12669      4.63656         0.001277      0.000401     -0.001727
      3.85100      2.53647      4.63656        -0.001277     -0.000401     -0.001727
      3.85100      3.29511      8.85015        -0.001277      0.000401      0.001727
      7.98836      3.29511      0.14099        -0.001277      0.000401     -0.001727
      7.98836      2.53647      4.35458        -0.001277     -0.000401      0.001727
      4.42372      9.12669      4.35458         0.001277      0.000401      0.001727
      4.42372      8.36806      0.14099         0.001277     -0.000401     -0.001727
      2.06868      0.00000      6.64429        -0.000000      0.000000     -0.001752
      2.06868      5.83158      6.84242        -0.000000      0.000000      0.001752
      6.20604      0.00000      2.34685        -0.000000      0.000000      0.001752
      6.20604      5.83158      2.14872        -0.000000      0.000000     -0.001752
      2.06868      0.00000      2.82762        -0.000000      0.000000     -0.002850
      2.06868      5.83158      1.66795        -0.000000      0.000000      0.002850
      6.20604      0.00000      6.16352        -0.000000      0.000000      0.002850
      6.20604      5.83158      7.32319        -0.000000      0.000000     -0.002850
      0.91221      9.12527      8.33928         0.000386      0.000106     -0.003213
      0.91221      8.36948      5.14743         0.000386     -0.000106      0.003213
      3.22515      3.29369      5.14743        -0.000386      0.000106      0.003213
      3.22515      2.53789      8.33928        -0.000386     -0.000106     -0.003213
      7.36251      2.53789      0.65186        -0.000386     -0.000106      0.003213
      7.36251      3.29369      3.84371        -0.000386      0.000106     -0.003213
      5.04957      8.36948      3.84371         0.000386     -0.000106     -0.003213
      5.04957      9.12527      0.65186         0.000386      0.000106      0.003213
      6.88728     10.71299      0.66328        -0.000992      0.002021     -0.003326
      6.88728      6.78177      3.83228        -0.000992     -0.002021      0.003326
      5.52479      4.88140      3.83228         0.000992      0.002021      0.003326
      5.52479      0.95018      0.66328         0.000992     -0.002021     -0.003326
      1.38743      0.95018      8.32785         0.000992     -0.002021      0.003326
      1.38743      4.88140      5.15885         0.000992      0.002021     -0.003326
      2.74992      6.78177      5.15885        -0.000992     -0.002021     -0.003326
      2.74992     10.71299      8.32785        -0.000992      0.002021      0.003326
      7.66254     10.23936      2.20591         0.000591      0.000562      0.004844
      7.66254      7.25539      2.28966         0.000591     -0.000562     -0.004844
      4.74954      4.40778      2.28966        -0.000591      0.000562     -0.004844
      4.74954      1.42380      2.20591        -0.000591     -0.000562      0.004844
      0.61218      1.42380      6.78523        -0.000591     -0.000562     -0.004844
      0.61218      4.40778      6.70147        -0.000591      0.000562      0.004844
      3.52518      7.25539      6.70147         0.000591     -0.000562      0.004844
      3.52518     10.23936      6.78523         0.000591      0.000562     -0.004844
      6.73914     10.95400      4.19795         0.000066      0.001904     -0.000713
      6.73914      6.54075      0.29762         0.000066     -0.001904      0.000713
      5.67294      5.12242      0.29762        -0.000066      0.001904      0.000713
      5.67294      0.70917      4.19795        -0.000066     -0.001904     -0.000713
      1.53558      0.70917      4.79319        -0.000066     -0.001904      0.000713
      1.53558      5.12242      8.69352        -0.000066      0.001904     -0.000713
      2.60178      6.54075      8.69352         0.000066     -0.001904     -0.000713
      2.60178     10.95400      4.79319         0.000066      0.001904      0.000713
      6.98544     10.80082      1.68021         0.000071      0.001277     -0.003921
      6.98544      6.69394      2.81536         0.000071     -0.001277      0.003921
      5.42664      4.96923      2.81536        -0.000071      0.001277      0.003921
      5.42664      0.86235      1.68021        -0.000071     -0.001277     -0.003921
      1.28928      0.86235      7.31093        -0.000071     -0.001277      0.003921
      1.28928      4.96923      6.17577        -0.000071      0.001277     -0.003921
      2.84808      6.69394      6.17577         0.000071     -0.001277     -0.003921
      2.84808     10.80082      7.31093         0.000071      0.001277      0.003921
      2.06868      0.00000      5.31039        -0.000000      0.000000      0.001044
      2.06868      5.83158      8.17632        -0.000000      0.000000     -0.001044
      6.20604      0.00000      3.68075        -0.000000      0.000000     -0.001044
      6.20604      5.83158      0.81482        -0.000000      0.000000      0.001044
 -----------------------------------------------------------------------------------
    total drift:                               -0.000000      0.000000      0.000000


--------------------------------------------------------------------------------------------------------



  FREE ENERGIE OF THE ION-ELECTRON SYSTEM (eV)
  ---------------------------------------------------
  free  energy   TOTEN  =      -566.10236276 eV

  energy  without entropy=     -566.10236276  energy(sigma->0) =     -566.10236276
 


--------------------------------------------------------------------------------------------------------


    POTLOK:  cpu time    0.4525: real time    0.4540


--------------------------------------------------------------------------------------------------------


 writing wavefunctions
     LOOP+:  cpu time  676.5959: real time  683.5043
    4ORBIT:  cpu time    0.0000: real time    0.0000



 total charge

# of ion       s       p       d       tot
------------------------------------------
    1        0.356   0.355   9.906  10.616
    2        0.356   0.355   9.906  10.616
    3        0.356   0.355   9.906  10.616
    4        0.356   0.355   9.906  10.616
    5        1.569   3.573   0.000   5.142
    6        1.569   3.573   0.000   5.142
    7        1.569   3.573   0.000   5.142
    8        1.569   3.573   0.000   5.142
    9        1.569   3.573   0.000   5.142
   10        1.569   3.573   0.000   5.142
   11        1.569   3.573   0.000   5.142
   12        1.569   3.573   0.000   5.142
   13        1.567   3.577   0.000   5.144
   14        1.567   3.577   0.000   5.144
   15        1.567   3.577   0.000   5.144
   16        1.567   3.577   0.000   5.144
   17        1.567   3.577   0.000   5.144
   18        1.567   3.577   0.000   5.144
   19        1.567   3.577   0.000   5.144
   20        1.567   3.577   0.000   5.144
   21        1.568   3.577   0.000   5.146
   22        1.568   3.577   0.000   5.146
   23        1.568   3.577   0.000   5.146
   24        1.568   3.577   0.000   5.146
   25        1.568   3.577   0.000   5.146
   26        1.568   3.577   0.000   5.146
   27        1.568   3.577   0.000   5.146
   28        1.568   3.577   0.000   5.146
   29        0.874   1.707   0.000   2.582
   30        0.874   1.707   0.000   2.582
   31        0.874   1.707   0.000   2.582
   32        0.874   1.707   0.000   2.582
   33        0.872   1.704   0.000   2.576
   34        0.872   1.704   0.000   2.576
   35        0.872   1.704   0.000   2.576
   36        0.872   1.704   0.000   2.576
   37        0.872   1.704   0.000   2.576
   38        0.872   1.704   0.000   2.576
   39        0.872   1.704   0.000   2.576
   40        0.872   1.704   0.000   2.576
   41        0.855   1.759   0.000   2.614
   42        0.855   1.759   0.000   2.614
   43        0.855   1.759   0.000   2.614
   44        0.855   1.759   0.000   2.614
   45        0.650   0.047   0.000   0.697
   46        0.650   0.047   0.000   0.697
   47        0.650   0.047   0.000   0.697
   48        0.650   0.047   0.000   0.697
   49        0.640   0.045   0.000   0.685
   50        0.640   0.045   0.000   0.685
   51        0.640   0.045   0.000   0.685
   52        0.640   0.045   0.000   0.685
   53        0.640   0.045   0.000   0.685
   54        0.640   0.045   0.000   0.685
   55        0.640   0.045   0.000   0.685
   56        0.640   0.045   0.000   0.685
   57        0.605   0.094   0.000   0.699
   58        0.605   0.094   0.000   0.699
   59        0.605   0.094   0.000   0.699
   60        0.605   0.094   0.000   0.699
   61        0.605   0.094   0.000   0.699
   62        0.605   0.094   0.000   0.699
   63        0.605   0.094   0.000   0.699
   64        0.605   0.094   0.000   0.699
   65        0.605   0.094   0.000   0.699
   66        0.605   0.094   0.000   0.699
   67        0.605   0.094   0.000   0.699
   68        0.605   0.094   0.000   0.699
   69        0.605   0.094   0.000   0.699
   70        0.605   0.094   0.000   0.699
   71        0.605   0.094   0.000   0.699
   72        0.605   0.094   0.000   0.699
   73        0.604   0.094   0.000   0.697
   74        0.604   0.094   0.000   0.697
   75        0.604   0.094   0.000   0.697
   76        0.604   0.094   0.000   0.697
   77        0.604   0.094   0.000   0.697
   78        0.604   0.094   0.000   0.697
   79        0.604   0.094   0.000   0.697
   80        0.604   0.094   0.000   0.697
   81        1.209   2.807   0.000   4.016
   82        1.209   2.807   0.000   4.016
   83        1.209   2.807   0.000   4.016
   84        1.209   2.807   0.000   4.016
   85        1.209   2.807   0.000   4.016
   86        1.209   2.807   0.000   4.016
   87        1.209   2.807   0.000   4.016
   88        1.209   2.807   0.000   4.016
   89        1.211   2.811   0.000   4.022
   90        1.211   2.811   0.000   4.022
   91        1.211   2.811   0.000   4.022
   92        1.211   2.811   0.000   4.022
--------------------------------------------------
tot         89.689 151.240  39.623 280.553
 

 total amount of memory used by VASP MPI-rank0   722727. kBytes
=======================================================================

   base      :      30000. kBytes
   nonl-proj :     537303. kBytes
   fftplans  :      27658. kBytes
   grid      :      38969. kBytes
   one-center:       1430. kBytes
   wavefun   :      87367. kBytes
 
  
  
 General timing and accounting informations for this job:
 ========================================================
  
                  Total CPU time used (sec):      700.560
                            User time (sec):      692.010
                          System time (sec):        8.551
                         Elapsed time (sec):      714.612
  
                   Maximum memory used (kb):      890352.
                   Average memory used (kb):          N/A
  
                          Minor page faults:       994444
                          Major page faults:          284
                 Voluntary context switches:       133167
