 vasp.6.3.0 20Jan22 (build Feb 18 2022 09:23:16) complex                         
 executed on            Scout-CPU date 2022.04.12  16:18:32
 running on  120 total cores
 distrk:  each k-point on   60 cores,    2 groups
 distr:  one band on NCORE=   1 cores,   60 groups


--------------------------------------------------------------------------------------------------------


 INCAR:
   AMIX = 0.1
   IVDW = 11           (DFT-D3 method of method with no damping)
   ISPIN = 2 (Spin polarised DFT)
   ISTART = 1            (Read existing wavefunction
   ICHARG = 11         (Non-self-consistent: GGA/LDA band structures)
   LORBIT = 11
   LASPH = T
   GGA_COMPAT = .FALSE.
   LREAL = .FALSE.       (Projection operators: automatic)
   ENCUT = 850.0      (Cut-off energy for plane wave basis set, in eV)
   ENAUG = 1500.0
   PREC = Accurate     (Precision level)
   LMAXMIX = 4
   LWAVE = .TRUE.        (Write WAVECAR or not)
   LCHARG = .TRUE.        (Write CHGCAR or not)
   ADDGRID = .TRUE.        (Increase grid
   LPLANE = .TRUE.      (Real space distribution
   NWRITE = 2           (Medium-level output)
   KPAR = 2           (Divides k-grid into separate groups)
   NSW = 0          (number of ionic steps)
   ISMEAR = 0            (gaussian smearing method )
   SIGMA = 0.05         (please check the width of the smearing)
   IBRION = -1            (Algorithm: 0-MD
   ISIF = 3            (optimize atomic coordinates and lattice parameters)
   EDIFFG = -0.005       (Ionic convergence
   EDIFF = 1.0d-8
   NELM = 150
   NELMIN = 6
   NELMDL = -8
   ALGO = Normal
   MAGMOM = 4 -4 4 -4   88*0
   LCALCPOL = T

 POTCAR:    PAW_PBE Fe 06Sep2000                  
 POTCAR:    PAW_PBE C 08Apr2002                   
 POTCAR:    PAW_PBE H 15Jun2001                   
 POTCAR:    PAW_PBE N 08Apr2002                   
 POTCAR:    PAW_PBE O 08Apr2002                   
 -----------------------------------------------------------------------------
|                                                                             |
|           W    W    AA    RRRRR   N    N  II  N    N   GGGG   !!!           |
|           W    W   A  A   R    R  NN   N  II  NN   N  G    G  !!!           |
|           W    W  A    A  R    R  N N  N  II  N N  N  G       !!!           |
|           W WW W  AAAAAA  RRRRR   N  N N  II  N  N N  G  GGG   !            |
|           WW  WW  A    A  R   R   N   NN  II  N   NN  G    G                |
|           W    W  A    A  R    R  N    N  II  N    N   GGGG   !!!           |
|                                                                             |
|     For optimal performance we recommend to set                             |
|       NCORE = 2 up to number-of-cores-per-socket                            |
|     NCORE specifies how many cores store one orbital (NPAR=cpu/NCORE).      |
|     This setting can greatly improve the performance of VASP for DFT.       |
|     The default, NCORE=1 might be grossly inefficient on modern             |
|     multi-core architectures or massively parallel machines. Do your        |
|     own testing! More info at https://www.vasp.at/wiki/index.php/NCORE      |
|     Unfortunately you need to use the default for GW and RPA                |
|     calculations (for HF NCORE is supported but not extensively tested      |
|     yet).                                                                   |
|                                                                             |
 -----------------------------------------------------------------------------

 POTCAR:    PAW_PBE Fe 06Sep2000                  
   SHA256 =  cd5a22d9368cc8b5cc476bea79732366149640da08ac9009b0e1b7fc627eea28 Fe/POTCAR             
   COPYR  = (c) Copyright 06Sep2000 Georg Kresse                                                    
   COPYR  = This file is part of the software VASP. Any use, copying, and all other rights are regul
   COPYR  = If you do not have a valid VASP license, you may not use, copy or distribute this file. 
   VRHFIN =Fe:  d7 s1                                                                               
   LEXCH  = PE                                                                                      
   EATOM  =   594.3153 eV,   43.6809 Ry                                                             
                                                                                                    
   TITEL  = PAW_PBE Fe 06Sep2000                                                                    
   LULTRA =        F    use ultrasoft PP ?                                                          
   IUNSCR =        1    unscreen: 0-lin 1-nonlin 2-no                                               
   RPACOR =    2.000    partial core radius                                                         
   POMASS =   55.847; ZVAL   =    8.000    mass and valenz                                          
   RCORE  =    2.300    outmost cutoff radius                                                       
   RWIGS  =    2.460; RWIGS  =    1.302    wigner-seitz radius (au A)                               
   ENMAX  =  267.882; ENMIN  =  200.911 eV                                                          
   RCLOC  =    1.701    cutoff for local pot                                                        
   LCOR   =        T    correct aug charges                                                         
   LPAW   =        T    paw PP                                                                      
   EAUG   =  511.368                                                                                
   DEXC   =    0.000                                                                                
   RMAX   =    2.356    core radius for proj-oper                                                   
   RAUG   =    1.300    factor for augmentation sphere                                              
   RDEP   =    2.442    radius for radial grids                                                     
   RDEPT  =    1.890    core radius for aug-charge                                                  
                                                                                                    
   Atomic configuration                                                                             
    9 entries                                                                                       
     n  l   j            E        occ.                                                              
     1  0  0.50     -6993.8440   2.0000                                                             
     2  0  0.50      -814.6047   2.0000                                                             
     2  1  1.50      -693.3689   6.0000                                                             
     3  0  0.50       -89.4732   2.0000                                                             
     3  1  1.50       -55.6373   6.0000                                                             
     3  2  2.50        -3.8151   7.0000                                                             
     4  0  0.50        -4.2551   1.0000                                                             
     4  1  1.50        -3.4015   0.0000                                                             
     4  3  2.50        -1.3606   0.0000                                                             
   Description                                                                                      
     l       E           TYP  RCUT    TYP  RCUT                                                     
     2     -3.8151135     23  2.300                                                                 
     2     -5.1756961     23  2.300                                                                 
     0     -4.2550963     23  2.300                                                                 
     0      7.2035603     23  2.300                                                                 
     1     -2.7211652     23  2.300                                                                 
     1     18.4316424     23  2.300                                                                 
  local pseudopotential read in
  partial core-charges read in
  partial kinetic energy density read in
  atomic valenz-charges read in
  non local Contribution for L=            2  read in
    real space projection operators read in
  non local Contribution for L=            2  read in
    real space projection operators read in
  non local Contribution for L=            0  read in
    real space projection operators read in
  non local Contribution for L=            0  read in
    real space projection operators read in
  non local Contribution for L=            1  read in
    real space projection operators read in
  non local Contribution for L=            1  read in
    real space projection operators read in
    PAW grid and wavefunctions read in
 
   number of l-projection  operators is LMAX  =            6
   number of lm-projection operators is LMMAX =           18
 
 POTCAR:    PAW_PBE C 08Apr2002                   
   SHA256 =  253f7b50bb8d59471dbedb8285d89021f4a42ed1a2c5d38a03a736e69125dd95 C/POTCAR              
   COPYR  = (c) Copyright 08Apr2002 Georg Kresse                                                    
   COPYR  = This file is part of the software VASP. Any use, copying, and all other rights are regul
   COPYR  = If you do not have a valid VASP license, you may not use, copy or distribute this file. 
   VRHFIN =C: s2p2                                                                                  
   LEXCH  = PE                                                                                      
   EATOM  =   147.1560 eV,   10.8157 Ry                                                             
                                                                                                    
   TITEL  = PAW_PBE C 08Apr2002                                                                     
   LULTRA =        F    use ultrasoft PP ?                                                          
   IUNSCR =        1    unscreen: 0-lin 1-nonlin 2-no                                               
   RPACOR =    1.200    partial core radius                                                         
   POMASS =   12.011; ZVAL   =    4.000    mass and valenz                                          
   RCORE  =    1.500    outmost cutoff radius                                                       
   RWIGS  =    1.630; RWIGS  =    0.863    wigner-seitz radius (au A)                               
   ENMAX  =  400.000; ENMIN  =  300.000 eV                                                          
   ICORE  =        2    local potential                                                             
   LCOR   =        T    correct aug charges                                                         
   LPAW   =        T    paw PP                                                                      
   EAUG   =  644.873                                                                                
   DEXC   =    0.000                                                                                
   RMAX   =    1.529    core radius for proj-oper                                                   
   RAUG   =    1.300    factor for augmentation sphere                                              
   RDEP   =    1.501    radius for radial grids                                                     
   RDEPT  =    1.300    core radius for aug-charge                                                  
                                                                                                    
   Atomic configuration                                                                             
    4 entries                                                                                       
     n  l   j            E        occ.                                                              
     1  0  0.50      -273.3789   2.0000                                                             
     2  0  0.50       -13.7508   2.0000                                                             
     2  1  0.50        -5.2854   2.0000                                                             
     3  2  1.50        -5.4423   0.0000                                                             
   Description                                                                                      
     l       E           TYP  RCUT    TYP  RCUT                                                     
     0    -13.7508458     23  1.200                                                                 
     0     -8.2022199     23  1.200                                                                 
     1     -5.2854383     23  1.500                                                                 
     1     34.0145650     23  1.500                                                                 
     2     -5.4423304      7  1.500                                                                 
  local pseudopotential read in
  partial core-charges read in
  partial kinetic energy density read in
  atomic valenz-charges read in
  non local Contribution for L=            0  read in
    real space projection operators read in
  non local Contribution for L=            0  read in
    real space projection operators read in
  non local Contribution for L=            1  read in
    real space projection operators read in
  non local Contribution for L=            1  read in
    real space projection operators read in
    PAW grid and wavefunctions read in
 
   number of l-projection  operators is LMAX  =            4
   number of lm-projection operators is LMMAX =            8
 
 POTCAR:    PAW_PBE H 15Jun2001                   
   SHA256 =  030f79b5d3ab3cf0e668861823c8fb652ff669f3e15e46930bd03bfd63a607b6 H/POTCAR              
   COPYR  = (c) Copyright 15Jun2001 Georg Kresse                                                    
   COPYR  = This file is part of the software VASP. Any use, copying, and all other rights are regul
   COPYR  = If you do not have a valid VASP license, you may not use, copy or distribute this file. 
   VRHFIN =H: ultrasoft test                                                                        
   LEXCH  = PE                                                                                      
   EATOM  =    12.4884 eV,    0.9179 Ry                                                             
                                                                                                    
   TITEL  = PAW_PBE H 15Jun2001                                                                     
   LULTRA =        F    use ultrasoft PP ?                                                          
   IUNSCR =        0    unscreen: 0-lin 1-nonlin 2-no                                               
   RPACOR =    0.000    partial core radius                                                         
   POMASS =    1.000; ZVAL   =    1.000    mass and valenz                                          
   RCORE  =    1.100    outmost cutoff radius                                                       
   RWIGS  =    0.700; RWIGS  =    0.370    wigner-seitz radius (au A)                               
   ENMAX  =  250.000; ENMIN  =  200.000 eV                                                          
   RCLOC  =    0.701    cutoff for local pot                                                        
   LCOR   =        T    correct aug charges                                                         
   LPAW   =        T    paw PP                                                                      
   EAUG   =  400.000                                                                                
   RMAX   =    1.123    core radius for proj-oper                                                   
   RAUG   =    1.200    factor for augmentation sphere                                              
   RDEP   =    1.112    radius for radial grids                                                     
   RDEPT  =    0.926    core radius for aug-charge                                                  
                                                                                                    
   Atomic configuration                                                                             
    2 entries                                                                                       
     n  l   j            E        occ.                                                              
     1  0  0.50        -6.4927   1.0000                                                             
     2  1  0.50        -3.4015   0.0000                                                             
   Description                                                                                      
     l       E           TYP  RCUT    TYP  RCUT                                                     
     0     -6.4927494     23  1.100                                                                 
     0      6.8029130     23  1.100                                                                 
     1     -4.0817478     23  1.100                                                                 
  local pseudopotential read in
  atomic valenz-charges read in
  non local Contribution for L=            0  read in
    real space projection operators read in
  non local Contribution for L=            0  read in
    real space projection operators read in
  non local Contribution for L=            1  read in
    real space projection operators read in
    PAW grid and wavefunctions read in
 
   number of l-projection  operators is LMAX  =            3
   number of lm-projection operators is LMMAX =            5
 
 POTCAR:    PAW_PBE N 08Apr2002                   
   SHA256 =  e053789ff3a61a86a1b75d8a110fcc91f86041011e7b0817c7c99e4e8a6349d7 N/POTCAR              
   COPYR  = (c) Copyright 08Apr2002 Georg Kresse                                                    
   COPYR  = This file is part of the software VASP. Any use, copying, and all other rights are regul
   COPYR  = If you do not have a valid VASP license, you may not use, copy or distribute this file. 
   VRHFIN =N: s2p3                                                                                  
   LEXCH  = PE                                                                                      
   EATOM  =   264.5486 eV,   19.4438 Ry                                                             
                                                                                                    
   TITEL  = PAW_PBE N 08Apr2002                                                                     
   LULTRA =        F    use ultrasoft PP ?                                                          
   IUNSCR =        1    unscreen: 0-lin 1-nonlin 2-no                                               
   RPACOR =    1.200    partial core radius                                                         
   POMASS =   14.001; ZVAL   =    5.000    mass and valenz                                          
   RCORE  =    1.500    outmost cutoff radius                                                       
   RWIGS  =    1.400; RWIGS  =    0.741    wigner-seitz radius (au A)                               
   ENMAX  =  400.000; ENMIN  =  300.000 eV                                                          
   ICORE  =        2    local potential                                                             
   LCOR   =        T    correct aug charges                                                         
   LPAW   =        T    paw PP                                                                      
   EAUG   =  627.112                                                                                
   DEXC   =    0.000                                                                                
   RMAX   =    1.529    core radius for proj-oper                                                   
   RAUG   =    1.300    factor for augmentation sphere                                              
   RDEP   =    1.514    radius for radial grids                                                     
   RDEPT  =    1.338    core radius for aug-charge                                                  
                                                                                                    
   Atomic configuration                                                                             
    4 entries                                                                                       
     n  l   j            E        occ.                                                              
     1  0  0.50      -384.7179   2.0000                                                             
     2  0  0.50       -18.5828   2.0000                                                             
     2  1  0.50        -7.0898   3.0000                                                             
     3  2  1.50        -6.8029   0.0000                                                             
   Description                                                                                      
     l       E           TYP  RCUT    TYP  RCUT                                                     
     0    -18.5828119     23  1.200                                                                 
     0    -13.5018863     23  1.200                                                                 
     1     -7.0897853     23  1.500                                                                 
     1      9.5240782     23  1.500                                                                 
     2     -6.8029130      7  1.500                                                                 
  local pseudopotential read in
  partial core-charges read in
  partial kinetic energy density read in
  atomic valenz-charges read in
  non local Contribution for L=            0  read in
    real space projection operators read in
  non local Contribution for L=            0  read in
    real space projection operators read in
  non local Contribution for L=            1  read in
    real space projection operators read in
  non local Contribution for L=            1  read in
    real space projection operators read in
    PAW grid and wavefunctions read in
 
   number of l-projection  operators is LMAX  =            4
   number of lm-projection operators is LMMAX =            8
 
 POTCAR:    PAW_PBE O 08Apr2002                   
   SHA256 =  818f92134a0a090dccd8ba1447fa70422a3b330e708bb4f08108d8ae51209ddf O/POTCAR              
   COPYR  = (c) Copyright 08Apr2002 Georg Kresse                                                    
   COPYR  = This file is part of the software VASP. Any use, copying, and all other rights are regul
   COPYR  = If you do not have a valid VASP license, you may not use, copy or distribute this file. 
   VRHFIN =O: s2p4                                                                                  
   LEXCH  = PE                                                                                      
   EATOM  =   432.3788 eV,   31.7789 Ry                                                             
                                                                                                    
   TITEL  = PAW_PBE O 08Apr2002                                                                     
   LULTRA =        F    use ultrasoft PP ?                                                          
   IUNSCR =        1    unscreen: 0-lin 1-nonlin 2-no                                               
   RPACOR =    1.200    partial core radius                                                         
   POMASS =   16.000; ZVAL   =    6.000    mass and valenz                                          
   RCORE  =    1.520    outmost cutoff radius                                                       
   RWIGS  =    1.550; RWIGS  =    0.820    wigner-seitz radius (au A)                               
   ENMAX  =  400.000; ENMIN  =  300.000 eV                                                          
   ICORE  =        2    local potential                                                             
   LCOR   =        T    correct aug charges                                                         
   LPAW   =        T    paw PP                                                                      
   EAUG   =  605.392                                                                                
   DEXC   =    0.000                                                                                
   RMAX   =    1.553    core radius for proj-oper                                                   
   RAUG   =    1.300    factor for augmentation sphere                                              
   RDEP   =    1.550    radius for radial grids                                                     
   RDEPT  =    1.329    core radius for aug-charge                                                  
                                                                                                    
   Atomic configuration                                                                             
    4 entries                                                                                       
     n  l   j            E        occ.                                                              
     1  0  0.50      -514.6923   2.0000                                                             
     2  0  0.50       -23.9615   2.0000                                                             
     2  1  0.50        -9.0305   4.0000                                                             
     3  2  1.50        -9.5241   0.0000                                                             
   Description                                                                                      
     l       E           TYP  RCUT    TYP  RCUT                                                     
     0    -23.9615318     23  1.200                                                                 
     0     -9.5240782     23  1.200                                                                 
     1     -9.0304911     23  1.520                                                                 
     1      8.1634956     23  1.520                                                                 
     2     -9.5240782      7  1.500                                                                 
  local pseudopotential read in
  partial core-charges read in
  partial kinetic energy density read in
  kinetic energy density of atom read in
  atomic valenz-charges read in
  non local Contribution for L=            0  read in
    real space projection operators read in
  non local Contribution for L=            0  read in
    real space projection operators read in
  non local Contribution for L=            1  read in
    real space projection operators read in
  non local Contribution for L=            1  read in
    real space projection operators read in
    PAW grid and wavefunctions read in
 
   number of l-projection  operators is LMAX  =            4
   number of lm-projection operators is LMMAX =            8
 
 -----------------------------------------------------------------------------
|                                                                             |
|               ----> ADVICE to this user running VASP <----                  |
|                                                                             |
|     You have a (more or less) 'large supercell' and for larger cells it     |
|     might be more efficient to use real-space projection operators.         |
|     Therefore, try LREAL= Auto in the INCAR file.                           |
|     Mind: For very accurate calculation, you might also keep the            |
|     reciprocal projection scheme (i.e. LREAL=.FALSE.).                      |
|                                                                             |
 -----------------------------------------------------------------------------

  PAW_PBE Fe 06Sep2000                  :
 energy of atom  1       EATOM= -594.3153
 kinetic energy error for atom=    0.0004 (will be added to EATOM!!)
  PAW_PBE C 08Apr2002                   :
 energy of atom  2       EATOM= -147.1560
 kinetic energy error for atom=    0.0012 (will be added to EATOM!!)
  PAW_PBE H 15Jun2001                   :
 energy of atom  3       EATOM=  -12.4884
 kinetic energy error for atom=    0.0002 (will be added to EATOM!!)
  PAW_PBE N 08Apr2002                   :
 energy of atom  4       EATOM= -264.5486
 kinetic energy error for atom=    0.0021 (will be added to EATOM!!)
  PAW_PBE O 08Apr2002                   :
 energy of atom  5       EATOM= -432.3788
 kinetic energy error for atom=    0.0031 (will be added to EATOM!!)
 
 
 POSCAR: crystal
  positions in direct lattice
  velocities in cartesian coordinates
 exchange correlation table for  LEXCH =        8
   RHO(1)=    0.500       N(1)  =     2000
   RHO(2)=  100.500       N(2)  =     4000
 


--------------------------------------------------------------------------------------------------------


 ion  position               nearest neighbor table
   1  0.259  0.250  0.250-  77 2.10  79 2.10  90 2.13  92 2.13  71 2.17  69 2.17
   2  0.241  0.750  0.250-  78 2.10  80 2.10  89 2.13  91 2.13  72 2.17  70 2.17
   3  0.741  0.750  0.750-  81 2.10  83 2.10  86 2.13  88 2.13  73 2.17  75 2.17
   4  0.759  0.250  0.750-  82 2.10  84 2.10  85 2.13  87 2.13  74 2.17  76 2.17
   5  0.250  0.500  0.313-  21 1.10  70 1.27  69 1.27
   6  0.250  0.000  0.187-  22 1.10  72 1.27  71 1.27
   7  0.750  0.500  0.687-  23 1.10  73 1.27  74 1.27
   8  0.750  0.000  0.813-  24 1.10  75 1.27  76 1.27
   9  0.533  0.219  0.482-  41 1.11  77 1.27  85 1.27
  10  0.967  0.781  0.482-  42 1.11  78 1.27  86 1.27
  11  0.533  0.281  0.018-  43 1.11  79 1.27  87 1.27
  12  0.967  0.719  0.018-  44 1.11  80 1.27  88 1.27
  13  0.467  0.781  0.518-  45 1.11  81 1.27  89 1.27
  14  0.033  0.219  0.518-  46 1.11  82 1.27  90 1.27
  15  0.467  0.719  0.982-  47 1.11  83 1.27  91 1.27
  16  0.033  0.281  0.982-  48 1.11  84 1.27  92 1.27
  17  0.250  0.500  0.765-  65 1.34  58 1.34  57 1.34
  18  0.250  0.000  0.735-  66 1.34  60 1.34  59 1.34
  19  0.750  0.500  0.235-  67 1.34  62 1.34  61 1.34
  20  0.750  0.000  0.265-  68 1.34  64 1.34  63 1.34
  21  0.250  0.500  0.191-   5 1.10
  22  0.250  0.000  0.309-   6 1.10
  23  0.750  0.500  0.809-   7 1.10
  24  0.750  0.000  0.691-   8 1.10
  25  0.328  0.418  0.578-  57 1.03
  26  0.172  0.582  0.578-  58 1.03
  27  0.328  0.082  0.922-  59 1.03
  28  0.172  0.918  0.922-  60 1.03
  29  0.672  0.582  0.422-  61 1.03
  30  0.828  0.418  0.422-  62 1.03
  31  0.672  0.918  0.078-  63 1.03
  32  0.828  0.082  0.078-  64 1.03
  33  0.420  0.376  0.750-  57 1.02
  34  0.080  0.624  0.750-  58 1.02
  35  0.420  0.124  0.750-  59 1.02
  36  0.080  0.876  0.750-  60 1.02
  37  0.580  0.624  0.250-  61 1.02
  38  0.920  0.376  0.250-  62 1.02
  39  0.580  0.876  0.250-  63 1.02
  40  0.920  0.124  0.250-  64 1.02
  41  0.615  0.278  0.424-   9 1.11
  42  0.885  0.722  0.424-  10 1.11
  43  0.615  0.222  0.076-  11 1.11
  44  0.885  0.778  0.076-  12 1.11
  45  0.385  0.722  0.576-  13 1.11
  46  0.115  0.278  0.576-  14 1.11
  47  0.385  0.778  0.924-  15 1.11
  48  0.115  0.222  0.924-  16 1.11
  49  0.189  0.562  0.972-  65 1.03
  50  0.311  0.438  0.972-  65 1.03
  51  0.189  0.938  0.528-  66 1.03
  52  0.311  0.062  0.528-  66 1.03
  53  0.811  0.438  0.028-  67 1.03
  54  0.689  0.562  0.028-  67 1.03
  55  0.811  0.062  0.472-  68 1.03
  56  0.689  0.938  0.472-  68 1.03
  57  0.340  0.425  0.691-  33 1.02  25 1.03  17 1.34
  58  0.160  0.575  0.691-  34 1.02  26 1.03  17 1.34
  59  0.340  0.075  0.809-  35 1.02  27 1.03  18 1.34
  60  0.160  0.925  0.809-  36 1.02  28 1.03  18 1.34
  61  0.660  0.575  0.309-  37 1.02  29 1.03  19 1.34
  62  0.840  0.425  0.309-  38 1.02  30 1.03  19 1.34
  63  0.660  0.925  0.191-  39 1.02  31 1.03  20 1.34
  64  0.840  0.075  0.191-  40 1.02  32 1.03  20 1.34
  65  0.250  0.500  0.914-  49 1.03  50 1.03  17 1.34
  66  0.250  0.000  0.586-  51 1.03  52 1.03  18 1.34
  67  0.750  0.500  0.086-  54 1.03  53 1.03  19 1.34
  68  0.750  0.000  0.414-  56 1.03  55 1.03  20 1.34
  69  0.266  0.405  0.379-   5 1.27   1 2.17
  70  0.234  0.595  0.379-   5 1.27   2 2.17
  71  0.266  0.095  0.121-   6 1.27   1 2.17
  72  0.234  0.905  0.121-   6 1.27   2 2.17
  73  0.734  0.595  0.621-   7 1.27   3 2.17
  74  0.766  0.405  0.621-   7 1.27   4 2.17
  75  0.734  0.905  0.879-   8 1.27   3 2.17
  76  0.766  0.095  0.879-   8 1.27   4 2.17
  77  0.413  0.181  0.411-   9 1.27   1 2.10
  78  0.087  0.819  0.411-  10 1.27   2 2.10
  79  0.413  0.319  0.089-  11 1.27   1 2.10
  80  0.087  0.681  0.089-  12 1.27   2 2.10
  81  0.587  0.819  0.589-  13 1.27   3 2.10
  82  0.913  0.181  0.589-  14 1.27   4 2.10
  83  0.587  0.681  0.911-  15 1.27   3 2.10
  84  0.913  0.319  0.911-  16 1.27   4 2.10
  85  0.565  0.193  0.616-   9 1.27   4 2.13
  86  0.935  0.807  0.616-  10 1.27   3 2.13
  87  0.565  0.307  0.884-  11 1.27   4 2.13
  88  0.935  0.693  0.884-  12 1.27   3 2.13
  89  0.435  0.807  0.384-  13 1.27   2 2.13
  90  0.065  0.193  0.384-  14 1.27   1 2.13
  91  0.435  0.693  0.116-  15 1.27   2 2.13
  92  0.065  0.307  0.116-  16 1.27   1 2.13
 
  LATTYP: Found a simple orthorhombic cell.
 ALAT       =     8.3479028880
 B/A-ratio  =     1.0757028647
 C/A-ratio  =     1.4114618895
  
  Lattice vectors:
  
 A1 = (  -8.3479028880,   0.0000000000,   0.0000000000)
 A2 = (   0.0000000000,   0.0000000000,   8.9798630508)
 A3 = (   0.0000000000,  11.7827467836,   0.0000000000)


Analysis of symmetry for initial positions (statically):
=====================================================================
 Subroutine PRICEL returns:
 Original cell was already a primitive cell.
 

 Routine SETGRP: Setting up the symmetry group for a 
 simple orthorhombic supercell.


 Subroutine GETGRP returns: Found  8 space group operations
 (whereof  2 operations were pure point group operations)
 out of a pool of  8 trial point group operations.


The static configuration has the point symmetry S_2 .
 The point group associated with its full space group is D_2h.


Analysis of symmetry for dynamics (positions and initial velocities):
=====================================================================
 Subroutine PRICEL returns:
 Original cell was already a primitive cell.
 

 Routine SETGRP: Setting up the symmetry group for a 
 simple orthorhombic supercell.


 Subroutine GETGRP returns: Found  8 space group operations
 (whereof  2 operations were pure point group operations)
 out of a pool of  8 trial point group operations.


The dynamic configuration has the point symmetry S_2 .
 The point group associated with its full space group is D_2h.


Analysis of structural, dynamic, and magnetic symmetry:
=====================================================================
 Subroutine PRICEL returns:
 Original cell was already a primitive cell.
 

 Routine SETGRP: Setting up the symmetry group for a 
 simple orthorhombic supercell.


 Subroutine GETGRP returns: Found  8 space group operations
 (whereof  2 operations were pure point group operations)
 out of a pool of  8 trial point group operations.


The overall configuration has the point symmetry S_2 .
 The point group associated with its full space group is D_2h.


 Subroutine INISYM returns: Found  8 space group operations
 (whereof  2 operations are pure point group operations),
 and found     1 'primitive' translations


----------------------------------------------------------------------------------------

                                     Primitive cell                                     

  volume of cell :     883.2703

  direct lattice vectors                    reciprocal lattice vectors
     8.347902888  0.000000000 -0.000000000     0.119790565  0.000000000  0.000000000
     0.000000000 11.782746784  0.000000000    -0.000000000  0.084869854  0.000000000
     0.000000000  0.000000000  8.979863051     0.000000000 -0.000000000  0.111360273

  length of vectors
     8.347902888 11.782746784  8.979863051     0.119790565  0.084869854  0.111360273

  position of ions in fractional coordinates (direct lattice)
     0.259313829  0.250000000  0.250000000
     0.240686171  0.750000000  0.250000000
     0.740686171  0.750000000  0.750000000
     0.759313829  0.250000000  0.750000000
     0.250000000  0.500000000  0.313058809
     0.250000000  0.000000000  0.186941191
     0.750000000  0.500000000  0.686941191
     0.750000000  0.000000000  0.813058809
     0.533306193  0.218996593  0.481615997
     0.966693807  0.781003407  0.481615997
     0.533306193  0.281003407  0.018384003
     0.966693807  0.718996593  0.018384003
     0.466693807  0.781003407  0.518384003
     0.033306193  0.218996593  0.518384003
     0.466693807  0.718996593  0.981615997
     0.033306193  0.281003407  0.981615997
     0.250000000  0.500000000  0.765496541
     0.250000000  0.000000000  0.734503459
     0.750000000  0.500000000  0.234503459
     0.750000000  0.000000000  0.265496541
     0.250000000  0.500000000  0.190508438
     0.250000000  0.000000000  0.309491562
     0.750000000  0.500000000  0.809491562
     0.750000000  0.000000000  0.690508438
     0.327829481  0.417711774  0.577928730
     0.172170519  0.582288226  0.577928730
     0.327829481  0.082288226  0.922071270
     0.172170519  0.917711774  0.922071270
     0.672170519  0.582288226  0.422071270
     0.827829481  0.417711774  0.422071270
     0.672170519  0.917711774  0.077928730
     0.827829481  0.082288226  0.077928730
     0.419961377  0.375983486  0.749671572
     0.080038623  0.624016514  0.749671572
     0.419961377  0.124016514  0.750328428
     0.080038623  0.875983486  0.750328428
     0.580038623  0.624016514  0.250328428
     0.919961377  0.375983486  0.250328428
     0.580038623  0.875983486  0.249671572
     0.919961377  0.124016514  0.249671572
     0.614841014  0.278472084  0.423740821
     0.885158986  0.721527916  0.423740821
     0.614841014  0.221527916  0.076259179
     0.885158986  0.778472084  0.076259179
     0.385158986  0.721527916  0.576259179
     0.114841014  0.278472084  0.576259179
     0.385158986  0.778472084  0.923740821
     0.114841014  0.221527916  0.923740821
     0.189310784  0.561764182  0.971696454
     0.310689216  0.438235818  0.971696454
     0.189310784  0.938235818  0.528303546
     0.310689216  0.061764182  0.528303546
     0.810689216  0.438235818  0.028303546
     0.689310784  0.561764182  0.028303546
     0.810689216  0.061764182  0.471696454
     0.689310784  0.938235818  0.471696454
     0.340005552  0.424809968  0.691370033
     0.159994448  0.575190032  0.691370033
     0.340005552  0.075190032  0.808629967
     0.159994448  0.924809968  0.808629967
     0.659994448  0.575190032  0.308629967
     0.840005552  0.424809968  0.308629967
     0.659994448  0.924809968  0.191370033
     0.840005552  0.075190032  0.191370033
     0.250000000  0.500000000  0.914356563
     0.250000000  0.000000000  0.585643437
     0.750000000  0.500000000  0.085643437
     0.750000000  0.000000000  0.414356563
     0.266470694  0.405266043  0.378819366
     0.233529306  0.594733957  0.378819366
     0.266470694  0.094733957  0.121180634
     0.233529306  0.905266043  0.121180634
     0.733529306  0.594733957  0.621180634
     0.766470694  0.405266043  0.621180634
     0.733529306  0.905266043  0.878819366
     0.766470694  0.094733957  0.878819366
     0.413249807  0.180502885  0.410911647
     0.086750193  0.819497115  0.410911647
     0.413249807  0.319497115  0.089088353
     0.086750193  0.680502885  0.089088353
     0.586750193  0.819497115  0.589088353
     0.913249807  0.180502885  0.589088353
     0.586750193  0.680502885  0.910911647
     0.913249807  0.319497115  0.910911647
     0.564583672  0.192715958  0.615886155
     0.935416328  0.807284042  0.615886155
     0.564583672  0.307284042  0.884113845
     0.935416328  0.692715958  0.884113845
     0.435416328  0.807284042  0.384113845
     0.064583672  0.192715958  0.384113845
     0.435416328  0.692715958  0.115886155
     0.064583672  0.307284042  0.115886155

  ion indices of the primitive-cell ions
   primitive index   ion index
                 1           1
                 2           2
                 3           3
                 4           4
                 5           5
                 6           6
                 7           7
                 8           8
                 9           9
                10          10
                11          11
                12          12
                13          13
                14          14
                15          15
                16          16
                17          17
                18          18
                19          19
                20          20
                21          21
                22          22
                23          23
                24          24
                25          25
                26          26
                27          27
                28          28
                29          29
                30          30
                31          31
                32          32
                33          33
                34          34
                35          35
                36          36
                37          37
                38          38
                39          39
                40          40
                41          41
                42          42
                43          43
                44          44
                45          45
                46          46
                47          47
                48          48
                49          49
                50          50
                51          51
                52          52
                53          53
                54          54
                55          55
                56          56
                57          57
                58          58
                59          59
                60          60
                61          61
                62          62
                63          63
                64          64
                65          65
                66          66
                67          67
                68          68
                69          69
                70          70
                71          71
                72          72
                73          73
                74          74
                75          75
                76          76
                77          77
                78          78
                79          79
                80          80
                81          81
                82          82
                83          83
                84          84
                85          85
                86          86
                87          87
                88          88
                89          89
                90          90
                91          91
                92          92

----------------------------------------------------------------------------------------

 
 
 KPOINTS: K-Spacing Value to Generate K-Mesh: 0.04

Automatic generation of k-mesh.
 Grid dimensions read from file:
 generate k-points for:    6    3    6

 Generating k-lattice:

  Cartesian coordinates                     Fractional coordinates (reciprocal lattice)
     0.019965094  0.000000000  0.000000000     0.166666667  0.000000000  0.000000000
    -0.000000000  0.028289951  0.000000000     0.000000000  0.333333333  0.000000000
     0.000000000 -0.000000000  0.018560045     0.000000000  0.000000000  0.166666667

  Length of vectors
     0.019965094  0.028289951  0.018560045

  Shift w.r.t. Gamma in fractional coordinates (k-lattice)
     0.500000000  0.000000000  0.500000000

 
 Subroutine IBZKPT returns following result:
 ===========================================
 
 Found     18 irreducible k-points:
 
 Following reciprocal coordinates:
            Coordinates               Weight
  0.083333  0.000000  0.083333      4.000000
  0.250000  0.000000  0.083333      4.000000
  0.416667  0.000000  0.083333      4.000000
  0.083333  0.333333  0.083333      8.000000
  0.250000  0.333333  0.083333      8.000000
  0.416667  0.333333  0.083333      8.000000
  0.083333  0.000000  0.250000      4.000000
  0.250000  0.000000  0.250000      4.000000
  0.416667  0.000000  0.250000      4.000000
  0.083333  0.333333  0.250000      8.000000
  0.250000  0.333333  0.250000      8.000000
  0.416667  0.333333  0.250000      8.000000
  0.083333  0.000000  0.416667      4.000000
  0.250000  0.000000  0.416667      4.000000
  0.416667  0.000000  0.416667      4.000000
  0.083333  0.333333  0.416667      8.000000
  0.250000  0.333333  0.416667      8.000000
  0.416667  0.333333  0.416667      8.000000
 
 Following cartesian coordinates:
            Coordinates               Weight
  0.009983  0.000000  0.009280      4.000000
  0.029948  0.000000  0.009280      4.000000
  0.049913  0.000000  0.009280      4.000000
  0.009983  0.028290  0.009280      8.000000
  0.029948  0.028290  0.009280      8.000000
  0.049913  0.028290  0.009280      8.000000
  0.009983  0.000000  0.027840      4.000000
  0.029948  0.000000  0.027840      4.000000
  0.049913  0.000000  0.027840      4.000000
  0.009983  0.028290  0.027840      8.000000
  0.029948  0.028290  0.027840      8.000000
  0.049913  0.028290  0.027840      8.000000
  0.009983  0.000000  0.046400      4.000000
  0.029948  0.000000  0.046400      4.000000
  0.049913  0.000000  0.046400      4.000000
  0.009983  0.028290  0.046400      8.000000
  0.029948  0.028290  0.046400      8.000000
  0.049913  0.028290  0.046400      8.000000
 
 
 Subroutine IBZKPT_HF returns following result:
 ==============================================
 
 Found    108 k-points in 1st BZ
 the following    108 k-points will be used (e.g. in the exchange kernel)
 Following reciprocal coordinates:   # in IRBZ
  0.083333  0.000000  0.083333    0.00925926   1 t-inv F
  0.250000  0.000000  0.083333    0.00925926   2 t-inv F
  0.416667  0.000000  0.083333    0.00925926   3 t-inv F
  0.083333  0.333333  0.083333    0.00925926   4 t-inv F
  0.250000  0.333333  0.083333    0.00925926   5 t-inv F
  0.416667  0.333333  0.083333    0.00925926   6 t-inv F
  0.083333  0.000000  0.250000    0.00925926   7 t-inv F
  0.250000  0.000000  0.250000    0.00925926   8 t-inv F
  0.416667  0.000000  0.250000    0.00925926   9 t-inv F
  0.083333  0.333333  0.250000    0.00925926  10 t-inv F
  0.250000  0.333333  0.250000    0.00925926  11 t-inv F
  0.416667  0.333333  0.250000    0.00925926  12 t-inv F
  0.083333  0.000000  0.416667    0.00925926  13 t-inv F
  0.250000  0.000000  0.416667    0.00925926  14 t-inv F
  0.416667  0.000000  0.416667    0.00925926  15 t-inv F
  0.083333  0.333333  0.416667    0.00925926  16 t-inv F
  0.250000  0.333333  0.416667    0.00925926  17 t-inv F
  0.416667  0.333333  0.416667    0.00925926  18 t-inv F
 -0.083333 -0.000000 -0.083333    0.00925926   1 t-inv F
 -0.083333 -0.000000  0.083333    0.00925926   1 t-inv F spinflp
  0.083333  0.000000 -0.083333    0.00925926   1 t-inv F spinflp
 -0.250000 -0.000000 -0.083333    0.00925926   2 t-inv F
 -0.250000 -0.000000  0.083333    0.00925926   2 t-inv F spinflp
  0.250000  0.000000 -0.083333    0.00925926   2 t-inv F spinflp
 -0.416667 -0.000000 -0.083333    0.00925926   3 t-inv F
 -0.416667 -0.000000  0.083333    0.00925926   3 t-inv F spinflp
  0.416667  0.000000 -0.083333    0.00925926   3 t-inv F spinflp
 -0.083333 -0.333333 -0.083333    0.00925926   4 t-inv F
 -0.083333  0.333333 -0.083333    0.00925926   4 t-inv F spinflp
  0.083333 -0.333333  0.083333    0.00925926   4 t-inv F spinflp
 -0.083333 -0.333333  0.083333    0.00925926   4 t-inv F spinflp
  0.083333  0.333333 -0.083333    0.00925926   4 t-inv F spinflp
  0.083333 -0.333333 -0.083333    0.00925926   4 t-inv F
 -0.083333  0.333333  0.083333    0.00925926   4 t-inv F
 -0.250000 -0.333333 -0.083333    0.00925926   5 t-inv F
 -0.250000  0.333333 -0.083333    0.00925926   5 t-inv F spinflp
  0.250000 -0.333333  0.083333    0.00925926   5 t-inv F spinflp
 -0.250000 -0.333333  0.083333    0.00925926   5 t-inv F spinflp
  0.250000  0.333333 -0.083333    0.00925926   5 t-inv F spinflp
  0.250000 -0.333333 -0.083333    0.00925926   5 t-inv F
 -0.250000  0.333333  0.083333    0.00925926   5 t-inv F
 -0.416667 -0.333333 -0.083333    0.00925926   6 t-inv F
 -0.416667  0.333333 -0.083333    0.00925926   6 t-inv F spinflp
  0.416667 -0.333333  0.083333    0.00925926   6 t-inv F spinflp
 -0.416667 -0.333333  0.083333    0.00925926   6 t-inv F spinflp
  0.416667  0.333333 -0.083333    0.00925926   6 t-inv F spinflp
  0.416667 -0.333333 -0.083333    0.00925926   6 t-inv F
 -0.416667  0.333333  0.083333    0.00925926   6 t-inv F
 -0.083333 -0.000000 -0.250000    0.00925926   7 t-inv F
 -0.083333 -0.000000  0.250000    0.00925926   7 t-inv F spinflp
  0.083333  0.000000 -0.250000    0.00925926   7 t-inv F spinflp
 -0.250000 -0.000000 -0.250000    0.00925926   8 t-inv F
 -0.250000 -0.000000  0.250000    0.00925926   8 t-inv F spinflp
  0.250000  0.000000 -0.250000    0.00925926   8 t-inv F spinflp
 -0.416667 -0.000000 -0.250000    0.00925926   9 t-inv F
 -0.416667 -0.000000  0.250000    0.00925926   9 t-inv F spinflp
  0.416667  0.000000 -0.250000    0.00925926   9 t-inv F spinflp
 -0.083333 -0.333333 -0.250000    0.00925926  10 t-inv F
 -0.083333  0.333333 -0.250000    0.00925926  10 t-inv F spinflp
  0.083333 -0.333333  0.250000    0.00925926  10 t-inv F spinflp
 -0.083333 -0.333333  0.250000    0.00925926  10 t-inv F spinflp
  0.083333  0.333333 -0.250000    0.00925926  10 t-inv F spinflp
  0.083333 -0.333333 -0.250000    0.00925926  10 t-inv F
 -0.083333  0.333333  0.250000    0.00925926  10 t-inv F
 -0.250000 -0.333333 -0.250000    0.00925926  11 t-inv F
 -0.250000  0.333333 -0.250000    0.00925926  11 t-inv F spinflp
  0.250000 -0.333333  0.250000    0.00925926  11 t-inv F spinflp
 -0.250000 -0.333333  0.250000    0.00925926  11 t-inv F spinflp
  0.250000  0.333333 -0.250000    0.00925926  11 t-inv F spinflp
  0.250000 -0.333333 -0.250000    0.00925926  11 t-inv F
 -0.250000  0.333333  0.250000    0.00925926  11 t-inv F
 -0.416667 -0.333333 -0.250000    0.00925926  12 t-inv F
 -0.416667  0.333333 -0.250000    0.00925926  12 t-inv F spinflp
  0.416667 -0.333333  0.250000    0.00925926  12 t-inv F spinflp
 -0.416667 -0.333333  0.250000    0.00925926  12 t-inv F spinflp
  0.416667  0.333333 -0.250000    0.00925926  12 t-inv F spinflp
  0.416667 -0.333333 -0.250000    0.00925926  12 t-inv F
 -0.416667  0.333333  0.250000    0.00925926  12 t-inv F
 -0.083333 -0.000000 -0.416667    0.00925926  13 t-inv F
 -0.083333 -0.000000  0.416667    0.00925926  13 t-inv F spinflp
  0.083333  0.000000 -0.416667    0.00925926  13 t-inv F spinflp
 -0.250000 -0.000000 -0.416667    0.00925926  14 t-inv F
 -0.250000 -0.000000  0.416667    0.00925926  14 t-inv F spinflp
  0.250000  0.000000 -0.416667    0.00925926  14 t-inv F spinflp
 -0.416667 -0.000000 -0.416667    0.00925926  15 t-inv F
 -0.416667 -0.000000  0.416667    0.00925926  15 t-inv F spinflp
  0.416667  0.000000 -0.416667    0.00925926  15 t-inv F spinflp
 -0.083333 -0.333333 -0.416667    0.00925926  16 t-inv F
 -0.083333  0.333333 -0.416667    0.00925926  16 t-inv F spinflp
  0.083333 -0.333333  0.416667    0.00925926  16 t-inv F spinflp
 -0.083333 -0.333333  0.416667    0.00925926  16 t-inv F spinflp
  0.083333  0.333333 -0.416667    0.00925926  16 t-inv F spinflp
  0.083333 -0.333333 -0.416667    0.00925926  16 t-inv F
 -0.083333  0.333333  0.416667    0.00925926  16 t-inv F
 -0.250000 -0.333333 -0.416667    0.00925926  17 t-inv F
 -0.250000  0.333333 -0.416667    0.00925926  17 t-inv F spinflp
  0.250000 -0.333333  0.416667    0.00925926  17 t-inv F spinflp
 -0.250000 -0.333333  0.416667    0.00925926  17 t-inv F spinflp
  0.250000  0.333333 -0.416667    0.00925926  17 t-inv F spinflp
  0.250000 -0.333333 -0.416667    0.00925926  17 t-inv F
 -0.250000  0.333333  0.416667    0.00925926  17 t-inv F
 -0.416667 -0.333333 -0.416667    0.00925926  18 t-inv F
 -0.416667  0.333333 -0.416667    0.00925926  18 t-inv F spinflp
  0.416667 -0.333333  0.416667    0.00925926  18 t-inv F spinflp
 -0.416667 -0.333333  0.416667    0.00925926  18 t-inv F spinflp
  0.416667  0.333333 -0.416667    0.00925926  18 t-inv F spinflp
  0.416667 -0.333333 -0.416667    0.00925926  18 t-inv F
 -0.416667  0.333333  0.416667    0.00925926  18 t-inv F


--------------------------------------------------------------------------------------------------------




 Dimension of arrays:
   k-points           NKPTS =     18   k-points in BZ     NKDIM =     18   number of bands    NBANDS=    240
   number of dos      NEDOS =    301   number of ions     NIONS =     92
   non local maximal  LDIM  =      6   non local SUM 2l+1 LMDIM =     18
   total plane-waves  NPLWV = 806400
   max r-space proj   IRMAX =      1   max aug-charges    IRDMAX= 260344
   dimension x,y,z NGX =    80 NGY =  112 NGZ =   90
   dimension x,y,z NGXF=   160 NGYF=  224 NGZF=  180
   support grid    NGXF=   320 NGYF=  448 NGZF=  360
   ions per type =               4  16  36  12  24
   NGX,Y,Z   is equivalent  to a cutoff of  15.93, 15.80, 16.66 a.u.
   NGXF,Y,Z  is equivalent  to a cutoff of  31.86, 31.60, 33.32 a.u.

 SYSTEM =  unknown system                          
 POSCAR =  crystal                                 

 Startparameter for this run:
   NWRITE =      2    write-flag & timer
   PREC   = accura    normal or accurate (medium, high low for compatibility)
   ISTART =      1    job   : 0-new  1-cont  2-samecut
   ICHARG =     11    charge: 1-file 2-atom 10-const
   ISPIN  =      2    spin polarized calculation?
   LNONCOLLINEAR =      F non collinear calculations
   LSORBIT =      F    spin-orbit coupling
   INIWAV =      1    electr: 0-lowe 1-rand  2-diag
   LASPH  =      T    aspherical Exc in radial PAW
 Electronic Relaxation 1
   ENCUT  =  850.0 eV  62.47 Ry    7.90 a.u.  19.84 28.01 21.35*2*pi/ulx,y,z
   ENINI  =  850.0     initial cutoff
   ENAUG  = 1500.0 eV  augmentation charge cutoff
   NELM   =    150;   NELMIN=  6; NELMDL= -8     # of ELM steps 
   EDIFF  = 0.1E-07   stopping-criterion for ELM
   LREAL  =      F    real-space projection
   NLSPLINE    = F    spline interpolate recip. space projectors
   LCOMPAT=      F    compatible to vasp.4.4
   GGA_COMPAT  = F    GGA compatible to vasp.4.4-vasp.4.6
   LMAXPAW     = -100 max onsite density
   LMAXMIX     =    4 max onsite mixed and CHGCAR
   VOSKOWN=      0    Vosko Wilk Nusair interpolation
   ROPT   =    0.00000   0.00000   0.00000   0.00000
   ROPT   =    0.00000
 Ionic relaxation
   EDIFFG = -.5E-02   stopping-criterion for IOM
   NSW    =      0    number of steps for IOM
   NBLOCK =      1;   KBLOCK =      1    inner block; outer block 
   IBRION =     -1    ionic relax: 0-MD 1-quasi-New 2-CG
   NFREE  =      0    steps in history (QN), initial steepest desc. (CG)
   ISIF   =      3    stress and relaxation
   IWAVPR =     10    prediction:  0-non 1-charg 2-wave 3-comb
   ISYM   =      2    0-nonsym 1-usesym 2-fastsym
   LCORR  =      T    Harris-Foulkes like correction to forces

   POTIM  = 0.5000    time-step for ionic-motion
   TEIN   =    0.0    initial temperature
   TEBEG  =    0.0;   TEEND  =   0.0 temperature during run
   SMASS  =  -3.00    Nose mass-parameter (am)
   estimated Nose-frequenzy (Omega)   =  0.10E-29 period in steps = 0.13E+47 mass=  -0.159E-26a.u.
   SCALEE = 1.0000    scale energy and forces
   NPACO  =    256;   APACO  = 10.0  distance and # of slots for P.C.
   PSTRESS=    0.0 pullay stress

  Mass of Ions in am
   POMASS =  55.85 12.01  1.00 14.00 16.00
  Ionic Valenz
   ZVAL   =   8.00  4.00  1.00  5.00  6.00
  Atomic Wigner-Seitz radii
   RWIGS  =  -1.00 -1.00 -1.00 -1.00 -1.00
  virtual crystal weights 
   VCA    =   1.00  1.00  1.00  1.00  1.00
   NELECT =     336.0000    total number of electrons
   NUPDOWN=      -1.0000    fix difference up-down

 DOS related values:
   EMIN   =  10.00;   EMAX   =-10.00  energy-range for DOS
   EFERMI =   0.00
   ISMEAR =     0;   SIGMA  =   0.05  broadening in eV -4-tet -1-fermi 0-gaus

 Electronic relaxation 2 (details)
   IALGO  =     38    algorithm
   LDIAG  =      T    sub-space diagonalisation (order eigenvalues)
   LSUBROT=      F    optimize rotation matrix (better conditioning)
   TURBO    =      0    0=normal 1=particle mesh
   IRESTART =      0    0=no restart 2=restart with 2 vectors
   NREBOOT  =      0    no. of reboots
   NMIN     =      0    reboot dimension
   EREF     =   0.00    reference energy to select bands
   IMIX   =      4    mixing-type and parameters
     AMIX     =   0.10;   BMIX     =  1.00
     AMIX_MAG =   0.40;   BMIX_MAG =  1.00
     AMIN     =   0.10
     WC   =   100.;   INIMIX=   1;  MIXPRE=   1;  MAXMIX= -45

 Intra band minimization:
   WEIMIN = 0.0000     energy-eigenvalue tresh-hold
   EBREAK =  0.10E-10  absolut break condition
   DEPER  =   0.30     relativ break condition  

   TIME   =   0.40     timestep for ELM

  volume/ion in A,a.u.               =       9.60        64.79
  Fermi-wavevector in a.u.,A,eV,Ry     =   1.186197  2.241587 19.144249  1.407063
  Thomas-Fermi vector in A             =   2.322374
 
 Write flags
   LWAVE        =      T    write WAVECAR
   LDOWNSAMPLE  =      F    k-point downsampling of WAVECAR
   LCHARG       =      T    write CHGCAR
   LVTOT        =      F    write LOCPOT, total local potential
   LVHAR        =      F    write LOCPOT, Hartree potential only
   LELF         =      F    write electronic localiz. function (ELF)
   LORBIT       =     11    0 simple, 1 ext, 2 COOP (PROOUT), +10 PAW based schemes


 Dipole corrections
   LMONO  =      F    monopole corrections only (constant potential shift)
   LDIPOL =      F    correct potential (dipole corrections)
   IDIPOL =      0    1-x, 2-y, 3-z, 4-all directions 
   EPSILON=  1.0000000 bulk dielectric constant

 Exchange correlation treatment:
   GGA     =    --    GGA type
   LEXCH   =     8    internal setting for exchange type
   LIBXC   =     F    Libxc                    
   VOSKOWN =     0    Vosko Wilk Nusair interpolation
   LHFCALC =     F    Hartree Fock is set to
   LHFONE  =     F    Hartree Fock one center treatment
   AEXX    =    0.0000 exact exchange contribution

 Linear response parameters
   LEPSILON=     F    determine dielectric tensor
   LRPA    =     F    only Hartree local field effects (RPA)
   LNABLA  =     F    use nabla operator in PAW spheres
   LVEL    =     F    velocity operator in full k-point grid
   CSHIFT  =0.1000    complex shift for real part using Kramers Kronig
   OMEGAMAX=  -1.0    maximum frequency
   DEG_THRESHOLD= 0.2000000E-02 threshold for treating states as degnerate
   RTIME   =   -0.100 relaxation time in fs
  (WPLASMAI=    0.000 imaginary part of plasma frequency in eV, 0.658/RTIME)
   DFIELD  = 0.0000000 0.0000000 0.0000000 field for delta impulse in time
 
  Optional k-point grid parameters
   LKPOINTS_OPT  =     F    use optional k-point grid
   KPOINTS_OPT_MODE=     1    mode for optional k-point grid
 
 Orbital magnetization related:
   ORBITALMAG=     F  switch on orbital magnetization
   LCHIMAG   =     F  perturbation theory with respect to B field
   DQ        =  0.001000  dq finite difference perturbation B field
   LLRAUG    =     F  two centre corrections for induced B field

 PEAD related settings:
   LPEAD      =     T    switch on PEAD
   IPEAD      =     4    finite difference order for dpsi/dk
   LCALCPOL   =     T    calculate macroscopic polarization
   LCALCEPS   =     F    calculate dielectric tensor
   EFIELD_PEAD=    0.0000    0.0000    0.0000
   SKIP_EDOTP =     F
   LRPA       =     F
   SKIP_SCF   =     F


--------------------------------------------------------------------------------------------------------


 Static calculation
 charge density and potential remain constant during run
 spin polarized calculation
 Variant of blocked Davidson
 Davidson routine will perform the subspace rotation
 perform sub-space diagonalisation
    after iterative eigenvector-optimisation
 no mixing
 using additional bands            72
 reciprocal scheme for non local part
 use partial core corrections
 calculate Harris-corrections to forces 
   (improved forces if not selfconsistent)
 use gradient corrections 
 WARNING: stress and forces are not correct
  (second derivative of E(xc) not defined)
 use of overlap-Matrix (Vanderbilt PP)
 Gauss-broadening in eV      SIGMA  =   0.05


--------------------------------------------------------------------------------------------------------


  energy-cutoff  :      850.00
  volume of cell :      883.27
      direct lattice vectors                 reciprocal lattice vectors
     8.347902888  0.000000000 -0.000000000     0.119790565  0.000000000  0.000000000
     0.000000000 11.782746784  0.000000000    -0.000000000  0.084869854  0.000000000
     0.000000000  0.000000000  8.979863051     0.000000000 -0.000000000  0.111360273

  length of vectors
     8.347902888 11.782746784  8.979863051     0.119790565  0.084869854  0.111360273


 
 old parameters found on file WAVECAR:
  energy-cutoff  :      850.00
  volume of cell :      883.27
      direct lattice vectors                 reciprocal lattice vectors
     8.347902888  0.000000000 -0.000000000     0.119790565  0.000000000  0.000000000
     0.000000000 11.782746784  0.000000000    -0.000000000  0.084869854  0.000000000
     0.000000000  0.000000000  8.979863051     0.000000000 -0.000000000  0.111360273

  length of vectors

 
 k-points in units of 2pi/SCALE and weight: K-Spacing Value to Generate K-Mesh: 0.04
   0.00998255  0.00000000  0.00928002       0.037
   0.02994764  0.00000000  0.00928002       0.037
   0.04991274  0.00000000  0.00928002       0.037
   0.00998255  0.02828995  0.00928002       0.074
   0.02994764  0.02828995  0.00928002       0.074
   0.04991274  0.02828995  0.00928002       0.074
   0.00998255  0.00000000  0.02784007       0.037
   0.02994764  0.00000000  0.02784007       0.037
   0.04991274  0.00000000  0.02784007       0.037
   0.00998255  0.02828995  0.02784007       0.074
   0.02994764  0.02828995  0.02784007       0.074
   0.04991274  0.02828995  0.02784007       0.074
   0.00998255  0.00000000  0.04640011       0.037
   0.02994764  0.00000000  0.04640011       0.037
   0.04991274  0.00000000  0.04640011       0.037
   0.00998255  0.02828995  0.04640011       0.074
   0.02994764  0.02828995  0.04640011       0.074
   0.04991274  0.02828995  0.04640011       0.074
 
 k-points in reciprocal lattice and weights: K-Spacing Value to Generate K-Mesh: 0.04
   0.08333333  0.00000000  0.08333333       0.037
   0.25000000  0.00000000  0.08333333       0.037
   0.41666667  0.00000000  0.08333333       0.037
   0.08333333  0.33333333  0.08333333       0.074
   0.25000000  0.33333333  0.08333333       0.074
   0.41666667  0.33333333  0.08333333       0.074
   0.08333333  0.00000000  0.25000000       0.037
   0.25000000  0.00000000  0.25000000       0.037
   0.41666667  0.00000000  0.25000000       0.037
   0.08333333  0.33333333  0.25000000       0.074
   0.25000000  0.33333333  0.25000000       0.074
   0.41666667  0.33333333  0.25000000       0.074
   0.08333333  0.00000000  0.41666667       0.037
   0.25000000  0.00000000  0.41666667       0.037
   0.41666667  0.00000000  0.41666667       0.037
   0.08333333  0.33333333  0.41666667       0.074
   0.25000000  0.33333333  0.41666667       0.074
   0.41666667  0.33333333  0.41666667       0.074
 
 position of ions in fractional coordinates (direct lattice) 
   0.25931383  0.25000000  0.25000000
   0.24068617  0.75000000  0.25000000
   0.74068617  0.75000000  0.75000000
   0.75931383  0.25000000  0.75000000
   0.25000000  0.50000000  0.31305881
   0.25000000  0.00000000  0.18694119
   0.75000000  0.50000000  0.68694119
   0.75000000  0.00000000  0.81305881
   0.53330619  0.21899659  0.48161600
   0.96669381  0.78100341  0.48161600
   0.53330619  0.28100341  0.01838400
   0.96669381  0.71899659  0.01838400
   0.46669381  0.78100341  0.51838400
   0.03330619  0.21899659  0.51838400
   0.46669381  0.71899659  0.98161600
   0.03330619  0.28100341  0.98161600
   0.25000000  0.50000000  0.76549654
   0.25000000  0.00000000  0.73450346
   0.75000000  0.50000000  0.23450346
   0.75000000  0.00000000  0.26549654
   0.25000000  0.50000000  0.19050844
   0.25000000  0.00000000  0.30949156
   0.75000000  0.50000000  0.80949156
   0.75000000  0.00000000  0.69050844
   0.32782948  0.41771177  0.57792873
   0.17217052  0.58228823  0.57792873
   0.32782948  0.08228823  0.92207127
   0.17217052  0.91771177  0.92207127
   0.67217052  0.58228823  0.42207127
   0.82782948  0.41771177  0.42207127
   0.67217052  0.91771177  0.07792873
   0.82782948  0.08228823  0.07792873
   0.41996138  0.37598349  0.74967157
   0.08003862  0.62401651  0.74967157
   0.41996138  0.12401651  0.75032843
   0.08003862  0.87598349  0.75032843
   0.58003862  0.62401651  0.25032843
   0.91996138  0.37598349  0.25032843
   0.58003862  0.87598349  0.24967157
   0.91996138  0.12401651  0.24967157
   0.61484101  0.27847208  0.42374082
   0.88515899  0.72152792  0.42374082
   0.61484101  0.22152792  0.07625918
   0.88515899  0.77847208  0.07625918
   0.38515899  0.72152792  0.57625918
   0.11484101  0.27847208  0.57625918
   0.38515899  0.77847208  0.92374082
   0.11484101  0.22152792  0.92374082
   0.18931078  0.56176418  0.97169645
   0.31068922  0.43823582  0.97169645
   0.18931078  0.93823582  0.52830355
   0.31068922  0.06176418  0.52830355
   0.81068922  0.43823582  0.02830355
   0.68931078  0.56176418  0.02830355
   0.81068922  0.06176418  0.47169645
   0.68931078  0.93823582  0.47169645
   0.34000555  0.42480997  0.69137003
   0.15999445  0.57519003  0.69137003
   0.34000555  0.07519003  0.80862997
   0.15999445  0.92480997  0.80862997
   0.65999445  0.57519003  0.30862997
   0.84000555  0.42480997  0.30862997
   0.65999445  0.92480997  0.19137003
   0.84000555  0.07519003  0.19137003
   0.25000000  0.50000000  0.91435656
   0.25000000  0.00000000  0.58564344
   0.75000000  0.50000000  0.08564344
   0.75000000  0.00000000  0.41435656
   0.26647069  0.40526604  0.37881937
   0.23352931  0.59473396  0.37881937
   0.26647069  0.09473396  0.12118063
   0.23352931  0.90526604  0.12118063
   0.73352931  0.59473396  0.62118063
   0.76647069  0.40526604  0.62118063
   0.73352931  0.90526604  0.87881937
   0.76647069  0.09473396  0.87881937
   0.41324981  0.18050288  0.41091165
   0.08675019  0.81949712  0.41091165
   0.41324981  0.31949712  0.08908835
   0.08675019  0.68050288  0.08908835
   0.58675019  0.81949712  0.58908835
   0.91324981  0.18050288  0.58908835
   0.58675019  0.68050288  0.91091165
   0.91324981  0.31949712  0.91091165
   0.56458367  0.19271596  0.61588616
   0.93541633  0.80728404  0.61588616
   0.56458367  0.30728404  0.88411384
   0.93541633  0.69271596  0.88411384
   0.43541633  0.80728404  0.38411384
   0.06458367  0.19271596  0.38411384
   0.43541633  0.69271596  0.11588616
   0.06458367  0.30728404  0.11588616
 
 position of ions in cartesian coordinates  (Angst):
   2.16472666  2.94568670  2.24496576
   2.00922479  8.83706009  2.24496576
   6.18317623  8.83706009  6.73489729
   6.33867810  2.94568670  6.73489729
   2.08697572  5.89137339  2.81122523
   2.08697572  0.00000000  1.67870629
   6.26092717  5.89137339  6.16863782
   6.26092717  0.00000000  7.30115676
   4.45198831  2.58038141  4.32484570
   8.06986602  9.20236538  4.32484570
   4.45198831  3.31099199  0.16508582
   8.06986602  8.47175480  0.16508582
   3.89591458  9.20236538  4.65501735
   0.27803687  2.58038141  4.65501735
   3.89591458  8.47175480  8.81477723
   0.27803687  3.31099199  8.81477723
   2.08697572  5.89137339  6.87405410
   2.08697572  0.00000000  6.59574047
   6.26092717  5.89137339  2.10580895
   6.26092717  0.00000000  2.38412258
   2.08697572  5.89137339  1.71073968
   2.08697572  0.00000000  2.77919185
   6.26092717  5.89137339  7.26912337
   6.26092717  0.00000000  6.20067120
   2.73668867  4.92179206  5.18972085
   1.43726277  6.86095472  5.18972085
   2.73668867  0.96958133  8.28007372
   1.43726277 10.81316545  8.28007372
   5.61121422  6.86095472  3.79014220
   6.91064012  4.92179206  3.79014220
   5.61121422 10.81316545  0.69978933
   6.91064012  0.96958133  0.69978933
   3.50579679  4.43011821  6.73194805
   0.66815465  7.35262858  6.73194805
   3.50579679  1.46125519  6.73784653
   0.66815465 10.32149160  6.73784653
   4.84210609  7.35262858  2.24791500
   7.67974824  4.43011821  2.24791500
   4.84210609 10.32149160  2.24201652
   7.67974824  1.46125519  2.24201652
   5.13263308  3.28116605  3.80513454
   7.38922126  8.50158073  3.80513454
   5.13263308  2.61020734  0.68479699
   7.38922126  9.17253944  0.68479699
   3.21526981  8.50158073  5.17472851
   0.95868163  3.28116605  5.17472851
   3.21526981  9.17253944  8.29506606
   0.95868163  2.61020734  8.29506606
   1.58034804  6.61912510  8.72570108
   2.59360341  5.16362168  8.72570108
   1.58034804 11.05499507  4.74409349
   2.59360341  0.72775171  4.74409349
   6.76755485  5.16362168  0.25416197
   5.75429948  6.61912510  0.25416197
   6.76755485  0.72775171  4.23576956
   5.75429948 11.05499507  4.23576956
   2.83833333  5.00542829  6.20840821
   1.33561811  6.77731850  6.20840821
   2.83833333  0.88594511  7.26138636
   1.33561811 10.89680168  7.26138636
   5.50956956  6.77731850  2.77145484
   7.01228478  5.00542829  2.77145484
   5.50956956 10.89680168  1.71847669
   7.01228478  0.88594511  1.71847669
   2.08697572  5.89137339  8.21079671
   2.08697572  0.00000000  5.25899786
   6.26092717  5.89137339  0.76906634
   6.26092717  0.00000000  3.72086519
   2.22447148  4.77514717  3.40174602
   1.94947997  7.00759961  3.40174602
   2.22447148  1.11622622  1.08818550
   1.94947997 10.66652056  1.08818550
   6.12343141  7.00759961  5.57811703
   6.39842292  4.77514717  5.57811703
   6.12343141 10.66652056  7.89167755
   6.39842292  1.11622622  7.89167755
   3.44976926  2.12681979  3.68993032
   0.72418219  9.65592700  3.68993032
   3.44976926  3.76455361  0.80000121
   0.72418219  8.01819318  0.80000121
   4.89813363  9.65592700  5.28993273
   7.62372070  2.12681979  5.28993273
   4.89813363  8.01819318  8.17986185
   7.62372070  3.76455361  8.17986185
   4.71308966  2.27072334  5.53057333
   7.80876467  9.51202344  5.53057333
   4.71308966  3.62065005  7.93922125
   7.80876467  8.16209673  7.93922125
   3.63481323  9.51202344  3.44928972
   0.53913822  2.27072334  3.44928972
   3.63481323  8.16209673  1.04064180
   0.53913822  3.62065005  1.04064180
 


--------------------------------------------------------------------------------------------------------


 k-point   1 :   0.0833 0.0000 0.0833  plane waves:   49683
 k-point   2 :   0.2500 0.0000 0.0833  plane waves:   49699
 k-point   3 :   0.4167 0.0000 0.0833  plane waves:   49689
 k-point   4 :   0.0833 0.3333 0.0833  plane waves:   49692
 k-point   5 :   0.2500 0.3333 0.0833  plane waves:   49701
 k-point   6 :   0.4167 0.3333 0.0833  plane waves:   49758
 k-point   7 :   0.0833 0.0000 0.2500  plane waves:   49685
 k-point   8 :   0.2500 0.0000 0.2500  plane waves:   49680
 k-point   9 :   0.4167 0.0000 0.2500  plane waves:   49698
 k-point  10 :   0.0833 0.3333 0.2500  plane waves:   49679
 k-point  11 :   0.2500 0.3333 0.2500  plane waves:   49719
 k-point  12 :   0.4167 0.3333 0.2500  plane waves:   49714
 k-point  13 :   0.0833 0.0000 0.4167  plane waves:   49701
 k-point  14 :   0.2500 0.0000 0.4167  plane waves:   49644
 k-point  15 :   0.4167 0.0000 0.4167  plane waves:   49705
 k-point  16 :   0.0833 0.3333 0.4167  plane waves:   49701
 k-point  17 :   0.2500 0.3333 0.4167  plane waves:   49704
 k-point  18 :   0.4167 0.3333 0.4167  plane waves:   49687

 maximum and minimum number of plane-waves per node :     49758    49644

 maximum number of plane-waves:     49758
 maximum index in each direction: 
   IXMAX=   19   IYMAX=   28   IZMAX=   21
   IXMIN=  -20   IYMIN=  -28   IZMIN=  -21


 serial   3D FFT for wavefunctions
 parallel 3D FFT for charge:
    minimum data exchange during FFTs selected (reduces bandwidth)


 total amount of memory used by VASP MPI-rank0   966035. kBytes
=======================================================================

   base      :      30000. kBytes
   nonl-proj :     718713. kBytes
   fftplans  :      20567. kBytes
   grid      :      77496. kBytes
   one-center:       2861. kBytes
   wavefun   :     116398. kBytes
 
     INWAV:  cpu time     39.4130: real time     39.4219
 initial charge density was supplied:
 number of electron     336.0000002 magnetization       0.0000000
 keeping initial charge density in first step


--------------------------------------------------------------------------------------------------------


 Maximum index for augmentation-charges          4869 (set IRDMAX)


--------------------------------------------------------------------------------------------------------


 First call to EWALD:  gamma=   0.185
 Maximum number of real-space cells 3x 2x 3
 Maximum number of reciprocal cells 2x 3x 3

    FEWALD:  cpu time      0.9029: real time      0.9027


--------------------------------------- Iteration      1(   1)  ---------------------------------------


    POTLOK:  cpu time      0.3272: real time      0.3286
    SETDIJ:  cpu time      1.9518: real time      1.9522
     EDDAV:  cpu time     70.7955: real time     70.6523
       DOS:  cpu time      0.0033: real time      0.0040
    --------------------------------------------
      LOOP:  cpu time     73.0777: real time     72.9371

 eigenvalue-minimisations  : 17280
 total energy-change (2. order) :-0.5798931E+03  (-0.3479387E+02)
 number of electron     336.0000002 magnetization       0.0000000
 augmentation part      336.0000002 magnetization       0.0000000

 Free energy of the ion-electron system (eV)
  ---------------------------------------------------
  alpha Z        PSCENC =       599.61864034
  Ewald energy   TEWEN  =    -10161.02394306
  -Hartree energ DENC   =     -8254.84289521
  -exchange      EXHF   =         0.00000000
  -V(xc)+E(xc)   XCENC  =      1277.20458065
  PAW double counting   =     28880.27755370   -28996.54891123
  entropy T*S    EENTRO =        -0.00000027
  eigenvalues    EBANDS =     -2657.46413197
  atomic energy  EATOM  =     18732.88603839
  Solvation  Ediel_sol  =         0.00000000
  ---------------------------------------------------
  free energy    TOTEN  =      -579.89306867 eV

  energy without entropy =     -579.89306840  energy(sigma->0) =     -579.89306853


--------------------------------------------------------------------------------------------------------




--------------------------------------- Iteration      1(   2)  ---------------------------------------


     EDDAV:  cpu time     81.9925: real time     81.8166
       DOS:  cpu time      0.0037: real time      0.0037
    --------------------------------------------
      LOOP:  cpu time     81.9962: real time     81.8203

 eigenvalue-minimisations  : 21600
 total energy-change (2. order) :-0.4128693E+01  (-0.4096998E+01)
 number of electron     336.0000002 magnetization       0.0000000
 augmentation part      336.0000002 magnetization       0.0000000

 Free energy of the ion-electron system (eV)
  ---------------------------------------------------
  alpha Z        PSCENC =       599.61864034
  Ewald energy   TEWEN  =    -10161.02394306
  -Hartree energ DENC   =     -8254.84289521
  -exchange      EXHF   =         0.00000000
  -V(xc)+E(xc)   XCENC  =      1277.20458065
  PAW double counting   =     28880.27755370   -28996.54891123
  entropy T*S    EENTRO =        -0.00000024
  eigenvalues    EBANDS =     -2661.59282503
  atomic energy  EATOM  =     18732.88603839
  Solvation  Ediel_sol  =         0.00000000
  ---------------------------------------------------
  free energy    TOTEN  =      -584.02176170 eV

  energy without entropy =     -584.02176146  energy(sigma->0) =     -584.02176158


--------------------------------------------------------------------------------------------------------




--------------------------------------- Iteration      1(   3)  ---------------------------------------


     EDDAV:  cpu time     87.3552: real time     87.1500
       DOS:  cpu time      0.0036: real time      0.0036
    --------------------------------------------
      LOOP:  cpu time     87.3588: real time     87.1536

 eigenvalue-minimisations  : 23640
 total energy-change (2. order) :-0.8454362E-01  (-0.8443570E-01)
 number of electron     336.0000002 magnetization       0.0000000
 augmentation part      336.0000002 magnetization       0.0000000

 Free energy of the ion-electron system (eV)
  ---------------------------------------------------
  alpha Z        PSCENC =       599.61864034
  Ewald energy   TEWEN  =    -10161.02394306
  -Hartree energ DENC   =     -8254.84289521
  -exchange      EXHF   =         0.00000000
  -V(xc)+E(xc)   XCENC  =      1277.20458065
  PAW double counting   =     28880.27755370   -28996.54891123
  entropy T*S    EENTRO =        -0.00000025
  eigenvalues    EBANDS =     -2661.67736864
  atomic energy  EATOM  =     18732.88603839
  Solvation  Ediel_sol  =         0.00000000
  ---------------------------------------------------
  free energy    TOTEN  =      -584.10630532 eV

  energy without entropy =     -584.10630507  energy(sigma->0) =     -584.10630520


--------------------------------------------------------------------------------------------------------




--------------------------------------- Iteration      1(   4)  ---------------------------------------


     EDDAV:  cpu time     83.9813: real time     83.7961
       DOS:  cpu time      0.0036: real time      0.0035
    --------------------------------------------
      LOOP:  cpu time     83.9848: real time     83.7996

 eigenvalue-minimisations  : 22860
 total energy-change (2. order) :-0.1778275E-02  (-0.1778070E-02)
 number of electron     336.0000002 magnetization       0.0000000
 augmentation part      336.0000002 magnetization       0.0000000

 Free energy of the ion-electron system (eV)
  ---------------------------------------------------
  alpha Z        PSCENC =       599.61864034
  Ewald energy   TEWEN  =    -10161.02394306
  -Hartree energ DENC   =     -8254.84289521
  -exchange      EXHF   =         0.00000000
  -V(xc)+E(xc)   XCENC  =      1277.20458065
  PAW double counting   =     28880.27755370   -28996.54891123
  entropy T*S    EENTRO =        -0.00000025
  eigenvalues    EBANDS =     -2661.67914692
  atomic energy  EATOM  =     18732.88603839
  Solvation  Ediel_sol  =         0.00000000
  ---------------------------------------------------
  free energy    TOTEN  =      -584.10808360 eV

  energy without entropy =     -584.10808335  energy(sigma->0) =     -584.10808347


--------------------------------------------------------------------------------------------------------




[...]
   -.247E+02 -.896E+02 -.450E+02   0.561E+02 0.109E+03 0.633E+02   -.314E+02 -.189E+02 -.184E+02   0.169E-02 0.241E-02 0.343E-02
   0.247E+02 0.896E+02 -.450E+02   -.561E+02 -.109E+03 0.633E+02   0.314E+02 0.189E+02 -.184E+02   -.169E-02 -.241E-02 0.343E-02
   -.247E+02 0.896E+02 0.450E+02   0.561E+02 -.109E+03 -.633E+02   -.314E+02 0.189E+02 0.184E+02   0.169E-02 -.241E-02 -.343E-02
   0.247E+02 -.896E+02 0.450E+02   -.561E+02 0.109E+03 -.633E+02   0.314E+02 -.189E+02 0.184E+02   -.169E-02 0.241E-02 -.343E-02
   0.419E+02 0.657E+02 -.794E+02   -.371E+02 -.788E+02 0.118E+03   -.483E+01 0.131E+02 -.385E+02   -.216E-02 -.899E-03 0.254E-02
   -.419E+02 -.657E+02 -.794E+02   0.371E+02 0.788E+02 0.118E+03   0.483E+01 -.131E+02 -.385E+02   0.216E-02 0.899E-03 0.254E-02
   0.419E+02 -.657E+02 0.794E+02   -.371E+02 0.788E+02 -.118E+03   -.483E+01 -.131E+02 0.385E+02   -.216E-02 0.899E-03 -.254E-02
   -.419E+02 0.657E+02 0.794E+02   0.371E+02 -.788E+02 -.118E+03   0.483E+01 0.131E+02 0.385E+02   0.216E-02 -.899E-03 -.254E-02
   -.419E+02 -.657E+02 0.794E+02   0.371E+02 0.788E+02 -.118E+03   0.483E+01 -.131E+02 0.385E+02   0.216E-02 0.899E-03 -.254E-02
   0.419E+02 0.657E+02 0.794E+02   -.371E+02 -.788E+02 -.118E+03   -.483E+01 0.131E+02 0.385E+02   -.216E-02 -.899E-03 -.254E-02
   -.419E+02 0.657E+02 -.794E+02   0.371E+02 -.788E+02 0.118E+03   0.483E+01 0.131E+02 -.385E+02   0.216E-02 -.899E-03 0.254E-02
   0.419E+02 -.657E+02 -.794E+02   -.371E+02 0.788E+02 0.118E+03   -.483E+01 -.131E+02 -.385E+02   -.216E-02 0.899E-03 0.254E-02
 -----------------------------------------------------------------------------------------------
   -.314E-08 0.150E-08 0.150E-09   -.711E-13 -.256E-12 0.114E-12   -.888E-15 0.000E+00 -.711E-14   0.239E-09 0.646E-12 0.914E-10
 
 
 POSITION                                       TOTAL-FORCE (eV/Angst)
 -----------------------------------------------------------------------------------
      2.16473      2.94569      2.24497         0.002355      0.000000     -0.000000
      2.00922      8.83706      2.24497        -0.002355      0.000000     -0.000000
      6.18318      8.83706      6.73490        -0.002355      0.000000     -0.000000
      6.33868      2.94569      6.73490         0.002355      0.000000     -0.000000
      2.08698      5.89137      2.81123         0.000000      0.000000      0.001544
      2.08698      0.00000      1.67871         0.000000      0.000000     -0.001544
      6.26093      5.89137      6.16864         0.000000      0.000000     -0.001544
      6.26093      0.00000      7.30116         0.000000      0.000000      0.001544
      4.45199      2.58038      4.32485         0.002408     -0.000561     -0.000226
      8.06987      9.20237      4.32485        -0.002408      0.000561     -0.000226
      4.45199      3.31099      0.16509         0.002408      0.000561      0.000226
      8.06987      8.47175      0.16509        -0.002408     -0.000561      0.000226
      3.89591      9.20237      4.65502        -0.002408      0.000561      0.000226
      0.27804      2.58038      4.65502         0.002408     -0.000561      0.000226
      3.89591      8.47175      8.81478        -0.002408     -0.000561     -0.000226
      0.27804      3.31099      8.81478         0.002408      0.000561     -0.000226
      2.08698      5.89137      6.87405         0.000000      0.000000     -0.004968
      2.08698      0.00000      6.59574         0.000000      0.000000      0.004968
      6.26093      5.89137      2.10581         0.000000      0.000000      0.004968
      6.26093      0.00000      2.38412         0.000000      0.000000     -0.004968
      2.08698      5.89137      1.71074         0.000000      0.000000      0.000250
      2.08698      0.00000      2.77919         0.000000      0.000000     -0.000250
      6.26093      5.89137      7.26912         0.000000      0.000000     -0.000250
      6.26093      0.00000      6.20067         0.000000      0.000000      0.000250
      2.73669      4.92179      5.18972         0.001487      0.000501     -0.000533
      1.43726      6.86095      5.18972        -0.001487     -0.000501     -0.000533
      2.73669      0.96958      8.28007         0.001487     -0.000501      0.000533
      1.43726     10.81317      8.28007        -0.001487      0.000501      0.000533
      5.61121      6.86095      3.79014        -0.001487     -0.000501      0.000533
      6.91064      4.92179      3.79014         0.001487      0.000501      0.000533
      5.61121     10.81317      0.69979        -0.001487      0.000501     -0.000533
      6.91064      0.96958      0.69979         0.001487     -0.000501     -0.000533
      3.50580      4.43012      6.73195         0.000388      0.000098      0.000100
      0.66815      7.35263      6.73195        -0.000388     -0.000098      0.000100
      3.50580      1.46126      6.73785         0.000388     -0.000098     -0.000100
      0.66815     10.32149      6.73785        -0.000388      0.000098     -0.000100
      4.84211      7.35263      2.24792        -0.000388     -0.000098     -0.000100
      7.67975      4.43012      2.24792         0.000388      0.000098     -0.000100
      4.84211     10.32149      2.24202        -0.000388      0.000098      0.000100
      7.67975      1.46126      2.24202         0.000388     -0.000098      0.000100
      5.13263      3.28117      3.80513         0.003086     -0.002296     -0.000553
      7.38922      8.50158      3.80513        -0.003086      0.002296     -0.000553
      5.13263      2.61021      0.68480         0.003086      0.002296      0.000553
      7.38922      9.17254      0.68480        -0.003086     -0.002296      0.000553
      3.21527      8.50158      5.17473        -0.003086      0.002296      0.000553
      0.95868      3.28117      5.17473         0.003086     -0.002296      0.000553
      3.21527      9.17254      8.29507        -0.003086     -0.002296     -0.000553
      0.95868      2.61021      8.29507         0.003086      0.002296     -0.000553
      1.58035      6.61913      8.72570        -0.000510     -0.000817     -0.000459
      2.59360      5.16362      8.72570         0.000510      0.000817     -0.000459
      1.58035     11.05500      4.74409        -0.000510      0.000817      0.000459
      2.59360      0.72775      4.74409         0.000510     -0.000817      0.000459
      6.76755      5.16362      0.25416         0.000510      0.000817      0.000459
      5.75430      6.61913      0.25416        -0.000510     -0.000817      0.000459
      6.76755      0.72775      4.23577         0.000510     -0.000817     -0.000459
      5.75430     11.05500      4.23577        -0.000510      0.000817     -0.000459
      2.83833      5.00543      6.20841         0.000686      0.000418      0.003015
      1.33562      6.77732      6.20841        -0.000686     -0.000418      0.003015
      2.83833      0.88595      7.26139         0.000686     -0.000418     -0.003015
      1.33562     10.89680      7.26139        -0.000686      0.000418     -0.003015
      5.50957      6.77732      2.77145        -0.000686     -0.000418     -0.003015
      7.01228      5.00543      2.77145         0.000686      0.000418     -0.003015
      5.50957     10.89680      1.71848        -0.000686      0.000418      0.003015
      7.01228      0.88595      1.71848         0.000686     -0.000418      0.003015
      2.08698      5.89137      8.21080         0.000000      0.000000      0.004167
      2.08698      0.00000      5.25900         0.000000      0.000000     -0.004167
      6.26093      5.89137      0.76907         0.000000      0.000000     -0.004167
      6.26093      0.00000      3.72087         0.000000      0.000000      0.004167
      2.22447      4.77515      3.40175         0.004900      0.000651     -0.000323
      1.94948      7.00760      3.40175        -0.004900     -0.000651     -0.000323
      2.22447      1.11623      1.08819         0.004900     -0.000651      0.000323
      1.94948     10.66652      1.08819        -0.004900      0.000651      0.000323
      6.12343      7.00760      5.57812        -0.004900     -0.000651      0.000323
      6.39842      4.77515      5.57812         0.004900      0.000651      0.000323
      6.12343     10.66652      7.89168        -0.004900      0.000651     -0.000323
      6.39842      1.11623      7.89168         0.004900     -0.000651     -0.000323
      3.44977      2.12682      3.68993         0.001600     -0.000907      0.000408
      0.72418      9.65593      3.68993        -0.001600      0.000907      0.000408
      3.44977      3.76455      0.80000         0.001600      0.000907     -0.000408
      0.72418      8.01819      0.80000        -0.001600     -0.000907     -0.000408
      4.89813      9.65593      5.28993        -0.001600      0.000907     -0.000408
      7.62372      2.12682      5.28993         0.001600     -0.000907     -0.000408
      4.89813      8.01819      8.17986        -0.001600     -0.000907      0.000408
      7.62372      3.76455      8.17986         0.001600      0.000907      0.000408
      4.71309      2.27072      5.53057         0.001589      0.000349      0.000581
      7.80876      9.51202      5.53057        -0.001589     -0.000349      0.000581
      4.71309      3.62065      7.93922         0.001589     -0.000349     -0.000581
      7.80876      8.16210      7.93922        -0.001589      0.000349     -0.000581
      3.63481      9.51202      3.44929        -0.001589     -0.000349     -0.000581
      0.53914      2.27072      3.44929         0.001589      0.000349     -0.000581
      3.63481      8.16210      1.04064        -0.001589      0.000349      0.000581
      0.53914      3.62065      1.04064         0.001589     -0.000349      0.000581
 -----------------------------------------------------------------------------------
    total drift:                               -0.000000      0.000000      0.000000


--------------------------------------------------------------------------------------------------------



  FREE ENERGIE OF THE ION-ELECTRON SYSTEM (eV)
  ---------------------------------------------------
  free  energy   TOTEN  =      -590.32008067 eV

  energy  without entropy=     -590.32008042  energy(sigma->0) =     -590.32008054
 


--------------------------------------------------------------------------------------------------------


    POTLOK:  cpu time      2.6956: real time      2.6948


--------------------------------------------------------------------------------------------------------


 writing wavefunctions
     LOOP+:  cpu time   1555.7791: real time   1553.6742
    4ORBIT:  cpu time      0.0000: real time      0.0000



 total charge

# of ion       s       p       d       tot
------------------------------------------
    1        0.257   0.328   6.049   6.634
    2        0.257   0.328   6.049   6.634
    3        0.257   0.328   6.049   6.634
    4        0.257   0.328   6.049   6.634
    5        0.876   1.705   0.000   2.581
    6        0.876   1.705   0.000   2.581
    7        0.876   1.705   0.000   2.581
    8        0.876   1.705   0.000   2.581
    9        0.871   1.703   0.000   2.574
   10        0.871   1.703   0.000   2.574
   11        0.871   1.703   0.000   2.574
   12        0.871   1.703   0.000   2.574
   13        0.871   1.703   0.000   2.574
   14        0.871   1.703   0.000   2.574
   15        0.871   1.703   0.000   2.574
   16        0.871   1.703   0.000   2.574
   17        0.856   1.758   0.000   2.614
   18        0.856   1.758   0.000   2.614
   19        0.856   1.758   0.000   2.614
   20        0.856   1.758   0.000   2.614
   21        0.650   0.047   0.000   0.696
   22        0.650   0.047   0.000   0.696
   23        0.650   0.047   0.000   0.696
   24        0.650   0.047   0.000   0.696
   25        0.602   0.095   0.000   0.697
   26        0.602   0.095   0.000   0.697
   27        0.602   0.095   0.000   0.697
   28        0.602   0.095   0.000   0.697
   29        0.602   0.095   0.000   0.697
   30        0.602   0.095   0.000   0.697
   31        0.602   0.095   0.000   0.697
   32        0.602   0.095   0.000   0.697
   33        0.605   0.095   0.000   0.700
   34        0.605   0.095   0.000   0.700
   35        0.605   0.095   0.000   0.700
   36        0.605   0.095   0.000   0.700
   37        0.605   0.095   0.000   0.700
   38        0.605   0.095   0.000   0.700
   39        0.605   0.095   0.000   0.700
   40        0.605   0.095   0.000   0.700
   41        0.639   0.046   0.000   0.685
   42        0.639   0.046   0.000   0.685
   43        0.639   0.046   0.000   0.685
   44        0.639   0.046   0.000   0.685
   45        0.639   0.046   0.000   0.685
   46        0.639   0.046   0.000   0.685
   47        0.639   0.046   0.000   0.685
   48        0.639   0.046   0.000   0.685
   49        0.606   0.093   0.000   0.699
   50        0.606   0.093   0.000   0.699
   51        0.606   0.093   0.000   0.699
   52        0.606   0.093   0.000   0.699
   53        0.606   0.093   0.000   0.699
   54        0.606   0.093   0.000   0.699
   55        0.606   0.093   0.000   0.699
   56        0.606   0.093   0.000   0.699
   57        1.210   2.796   0.000   4.005
   58        1.210   2.796   0.000   4.005
   59        1.210   2.796   0.000   4.005
   60        1.210   2.796   0.000   4.005
   61        1.210   2.796   0.000   4.005
   62        1.210   2.796   0.000   4.005
   63        1.210   2.796   0.000   4.005
   64        1.210   2.796   0.000   4.005
   65        1.209   2.799   0.000   4.008
   66        1.209   2.799   0.000   4.008
   67        1.209   2.799   0.000   4.008
   68        1.209   2.799   0.000   4.008
   69        1.569   3.569   0.000   5.138
   70        1.569   3.569   0.000   5.138
   71        1.569   3.569   0.000   5.138
   72        1.569   3.569   0.000   5.138
   73        1.569   3.569   0.000   5.138
   74        1.569   3.569   0.000   5.138
   75        1.569   3.569   0.000   5.138
   76        1.569   3.569   0.000   5.138
   77        1.566   3.577   0.000   5.144
   78        1.566   3.577   0.000   5.144
   79        1.566   3.577   0.000   5.144
   80        1.566   3.577   0.000   5.144
   81        1.566   3.577   0.000   5.144
   82        1.566   3.577   0.000   5.144
   83        1.566   3.577   0.000   5.144
   84        1.566   3.577   0.000   5.144
   85        1.567   3.577   0.000   5.144
   86        1.567   3.577   0.000   5.144
   87        1.567   3.577   0.000   5.144
   88        1.567   3.577   0.000   5.144
   89        1.567   3.577   0.000   5.144
   90        1.567   3.577   0.000   5.144
   91        1.567   3.577   0.000   5.144
   92        1.567   3.577   0.000   5.144
--------------------------------------------------
tot         89.281 150.948  24.195 264.424



 magnetization (x)

# of ion       s       p       d       tot
------------------------------------------
    1        0.015   0.014   3.562   3.592
    2       -0.015  -0.014  -3.562  -3.592
    3        0.015   0.014   3.562   3.592
    4       -0.015  -0.014  -3.562  -3.592
    5        0.000   0.000   0.000   0.000
    6        0.000   0.000   0.000   0.000
    7        0.000   0.000   0.000   0.000
    8        0.000   0.000   0.000   0.000
    9        0.000   0.002   0.000   0.002
   10       -0.000  -0.002   0.000  -0.002
   11        0.000   0.002   0.000   0.002
   12       -0.000  -0.002   0.000  -0.002
   13        0.000   0.002   0.000   0.002
   14       -0.000  -0.002   0.000  -0.002
   15        0.000   0.002   0.000   0.002
   16       -0.000  -0.002   0.000  -0.002
   17        0.000   0.000   0.000   0.000
   18        0.000   0.000   0.000   0.000
   19        0.000   0.000   0.000   0.000
   20        0.000   0.000   0.000   0.000
   21        0.000   0.000   0.000   0.000
   22        0.000   0.000   0.000   0.000
   23        0.000   0.000   0.000   0.000
   24        0.000   0.000   0.000   0.000
   25       -0.000   0.000   0.000   0.000
   26        0.000  -0.000   0.000  -0.000
   27       -0.000   0.000   0.000   0.000
   28        0.000  -0.000   0.000  -0.000
   29       -0.000   0.000   0.000   0.000
   30        0.000  -0.000   0.000  -0.000
   31       -0.000   0.000   0.000   0.000
   32        0.000  -0.000   0.000  -0.000
   33        0.000  -0.000   0.000   0.000
   34       -0.000   0.000   0.000  -0.000
   35        0.000  -0.000   0.000   0.000
   36       -0.000   0.000   0.000  -0.000
   37        0.000  -0.000   0.000   0.000
   38       -0.000   0.000   0.000  -0.000
   39        0.000  -0.000   0.000   0.000
   40       -0.000   0.000   0.000  -0.000
   41        0.000   0.000   0.000   0.000
   42       -0.000  -0.000   0.000  -0.000
   43        0.000   0.000   0.000   0.000
   44       -0.000  -0.000   0.000  -0.000
   45        0.000   0.000   0.000   0.000
   46       -0.000  -0.000   0.000  -0.000
   47        0.000   0.000   0.000   0.000
   48       -0.000  -0.000   0.000  -0.000
   49        0.000  -0.000   0.000  -0.000
   50       -0.000   0.000   0.000   0.000
   51        0.000  -0.000   0.000  -0.000
   52       -0.000   0.000   0.000   0.000
   53        0.000  -0.000   0.000  -0.000
   54       -0.000   0.000   0.000   0.000
   55        0.000  -0.000   0.000  -0.000
   56       -0.000   0.000   0.000   0.000
   57        0.000   0.000   0.000   0.000
   58       -0.000  -0.000   0.000  -0.000
   59        0.000   0.000   0.000   0.000
   60       -0.000  -0.000   0.000  -0.000
   61        0.000   0.000   0.000   0.000
   62       -0.000  -0.000   0.000  -0.000
   63        0.000   0.000   0.000   0.000
   64       -0.000  -0.000   0.000  -0.000
   65        0.000   0.000   0.000   0.000
   66        0.000   0.000   0.000   0.000
   67        0.000   0.000   0.000   0.000
   68        0.000   0.000   0.000   0.000
   69        0.004   0.024   0.000   0.028
   70       -0.004  -0.024   0.000  -0.028
   71        0.004   0.024   0.000   0.028
   72       -0.004  -0.024   0.000  -0.028
   73        0.004   0.024   0.000   0.028
   74       -0.004  -0.024   0.000  -0.028
   75        0.004   0.024   0.000   0.028
   76       -0.004  -0.024   0.000  -0.028
   77        0.005   0.026   0.000   0.031
   78       -0.005  -0.026   0.000  -0.031
   79        0.005   0.026   0.000   0.031
   80       -0.005  -0.026   0.000  -0.031
   81        0.005   0.026   0.000   0.031
   82       -0.005  -0.026   0.000  -0.031
   83        0.005   0.026   0.000   0.031
   84       -0.005  -0.026   0.000  -0.031
   85       -0.005  -0.026   0.000  -0.031
   86        0.005   0.026   0.000   0.031
   87       -0.005  -0.026   0.000  -0.031
   88        0.005   0.026   0.000   0.031
   89       -0.005  -0.026   0.000  -0.031
   90        0.005   0.026   0.000   0.031
   91       -0.005  -0.026   0.000  -0.031
   92        0.005   0.026   0.000   0.031
--------------------------------------------------
tot          0.000   0.000   0.000   0.000
 

 total amount of memory used by VASP MPI-rank0   966035. kBytes
=======================================================================

   base      :      30000. kBytes
   nonl-proj :     718713. kBytes
   fftplans  :      20567. kBytes
   grid      :      77496. kBytes
   one-center:       2861. kBytes
   wavefun   :     116398. kBytes
 
  
  
 General timing and accounting informations for this job:
 ========================================================
  
                  Total CPU time used (sec):     1725.959
                            User time (sec):     1709.276
                          System time (sec):       16.683
                         Elapsed time (sec):     1724.203
  
                   Maximum memory used (kb):     1348416.
                   Average memory used (kb):          N/A
  
                          Minor page faults:       167739
                          Major page faults:            3
                 Voluntary context switches:        30791
