 vasp.5.4.1 24Jun15 (build Aug 03 2015 13:31:17) complex                        
  
 executed on      LinuxIFC_2015xe date 2020.06.04  14:03:57
 running on   48 total cores
 distrk:  each k-point on   48 cores,    1 groups
 distr:  one band on NCORES_PER_BAND=   1 cores,   48 groups


--------------------------------------------------------------------------------------------------------


 INCAR:
 POTCAR:   PAW_PBE Co 06Sep2000                   
 POTCAR:   PAW_PBE O 08Apr2002                    
 POTCAR:   PAW_PBE C 08Apr2002                    
 POTCAR:   PAW_PBE H 15Jun2001                    
 POTCAR:   PAW_PBE N 08Apr2002                    

 ----------------------------------------------------------------------------- 
|                                                                             |
|           W    W    AA    RRRRR   N    N  II  N    N   GGGG   !!!           |
|           W    W   A  A   R    R  NN   N  II  NN   N  G    G  !!!           |
|           W    W  A    A  R    R  N N  N  II  N N  N  G       !!!           |
|           W WW W  AAAAAA  RRRRR   N  N N  II  N  N N  G  GGG   !            |
|           WW  WW  A    A  R   R   N   NN  II  N   NN  G    G                |
|           W    W  A    A  R    R  N    N  II  N    N   GGGG   !!!           |
|                                                                             |
|      For optimal performance we recommend to set                            |
|        NCORE= 4 - approx SQRT( number of cores)                             |
|      NCORE specifies how many cores store one orbital (NPAR=cpu/NCORE).     |
|      This setting can  greatly improve the performance of VASP for DFT.     |
|      The default, NPAR=number of cores might be grossly inefficient         |
|      on modern multi-core architectures or massively parallel machines.     |
|      Do your own testing !!!!                                               |
|      Unfortunately you need to use the default for GW and RPA calculations. |
|      (for HF NCORE is supported but not extensively tested yet)             |
|                                                                             |
 ----------------------------------------------------------------------------- 

 POTCAR:   PAW_PBE Co 06Sep2000                   
   VRHFIN =Co: d8 s1                                                            
   LEXCH  = PE                                                                  
   EATOM  =   813.5563 eV,   59.7947 Ry                                         
                                                                                
   TITEL  = PAW_PBE Co 06Sep2000                                                
   LULTRA =        F    use ultrasoft PP ?                                      
   IUNSCR =        1    unscreen: 0-lin 1-nonlin 2-no                           
   RPACOR =    2.000    partial core radius                                     
   POMASS =   58.933; ZVAL   =    9.000    mass and valenz                      
   RCORE  =    2.300    outmost cutoff radius                                   
   RWIGS  =    2.460; RWIGS  =    1.302    wigner-seitz radius (au A)           
   ENMAX  =  267.969; ENMIN  =  200.977 eV                                      
   RCLOC  =    1.697    cutoff for local pot                                    
   LCOR   =        T    correct aug charges                                     
   LPAW   =        T    paw PP                                                  
   EAUG   =  477.818                                                            
   DEXC   =    -.016                                                            
   RMAX   =    2.817    core radius for proj-oper                               
   RAUG   =    1.300    factor for augmentation sphere                          
   RDEP   =    2.393    radius for radial grids                                 
   QCUT   =   -4.438; QGAM   =    8.876    optimization parameters              
                                                                                
   Description                                                                  
     l     E      TYP  RCUT    TYP  RCUT                                        
     2   .000     23  2.300                                                     
     2   .000     23  2.300                                                     
     0   .000     23  2.300                                                     
     0   .000     23  2.300                                                     
     1  -.200     23  2.300                                                     
     1   .000     23  2.300                                                     
     3   .000      7   .000                                                     
  local pseudopotential read in
  partial core-charges read in
  atomic valenz-charges read in
  non local Contribution for L=           2  read in
    real space projection operators read in
  non local Contribution for L=           2  read in
    real space projection operators read in
  non local Contribution for L=           0  read in
    real space projection operators read in
  non local Contribution for L=           0  read in
    real space projection operators read in
  non local Contribution for L=           1  read in
    real space projection operators read in
  non local Contribution for L=           1  read in
    real space projection operators read in
    PAW grid and wavefunctions read in
 
   number of l-projection  operators is LMAX  =           6
   number of lm-projection operators is LMMAX =          18
 
 POTCAR:   PAW_PBE O 08Apr2002                    
   VRHFIN =O: s2p4                                                              
   LEXCH  = PE                                                                  
   EATOM  =   432.3788 eV,   31.7789 Ry                                         
                                                                                
   TITEL  = PAW_PBE O 08Apr2002                                                 
   LULTRA =        F    use ultrasoft PP ?                                      
   IUNSCR =        0    unscreen: 0-lin 1-nonlin 2-no                           
   RPACOR =     .000    partial core radius                                     
   POMASS =   16.000; ZVAL   =    6.000    mass and valenz                      
   RCORE  =    1.520    outmost cutoff radius                                   
   RWIGS  =    1.550; RWIGS  =     .820    wigner-seitz radius (au A)           
   ENMAX  =  400.000; ENMIN  =  300.000 eV                                      
   ICORE  =        2    local potential                                         
   LCOR   =        T    correct aug charges                                     
   LPAW   =        T    paw PP                                                  
   EAUG   =  605.392                                                            
   DEXC   =     .000                                                            
   RMAX   =    2.264    core radius for proj-oper                               
   RAUG   =    1.300    factor for augmentation sphere                          
   RDEP   =    1.550    radius for radial grids                                 
   QCUT   =   -5.520; QGAM   =   11.041    optimization parameters              
                                                                                
   Description                                                                  
     l     E      TYP  RCUT    TYP  RCUT                                        
     0   .000     23  1.200                                                     
     0  -.700     23  1.200                                                     
     1   .000     23  1.520                                                     
     1   .600     23  1.520                                                     
     2   .000      7  1.500                                                     
  local pseudopotential read in
  atomic valenz-charges read in
  non local Contribution for L=           0  read in
    real space projection operators read in
  non local Contribution for L=           0  read in
    real space projection operators read in
  non local Contribution for L=           1  read in
    real space projection operators read in
  non local Contribution for L=           1  read in
    real space projection operators read in
    PAW grid and wavefunctions read in
 
   number of l-projection  operators is LMAX  =           4
   number of lm-projection operators is LMMAX =           8
 
 POTCAR:   PAW_PBE C 08Apr2002                    
   VRHFIN =C: s2p2                                                              
   LEXCH  = PE                                                                  
   EATOM  =   147.1560 eV,   10.8157 Ry                                         
                                                                                
   TITEL  = PAW_PBE C 08Apr2002                                                 
   LULTRA =        F    use ultrasoft PP ?                                      
   IUNSCR =        0    unscreen: 0-lin 1-nonlin 2-no                           
   RPACOR =     .000    partial core radius                                     
   POMASS =   12.011; ZVAL   =    4.000    mass and valenz                      
   RCORE  =    1.500    outmost cutoff radius                                   
   RWIGS  =    1.630; RWIGS  =     .863    wigner-seitz radius (au A)           
   ENMAX  =  400.000; ENMIN  =  300.000 eV                                      
   ICORE  =        2    local potential                                         
   LCOR   =        T    correct aug charges                                     
   LPAW   =        T    paw PP                                                  
   EAUG   =  644.873                                                            
   DEXC   =     .000                                                            
   RMAX   =    2.266    core radius for proj-oper                               
   RAUG   =    1.300    factor for augmentation sphere                          
   RDEP   =    1.501    radius for radial grids                                 
   RDEPT  =    1.300    core radius for aug-charge                              
   QCUT   =   -5.516; QGAM   =   11.032    optimization parameters              
                                                                                
   Description                                                                  
     l     E      TYP  RCUT    TYP  RCUT                                        
     0   .000     23  1.200                                                     
     0   .000     23  1.200                                                     
     1   .000     23  1.500                                                     
     1  2.500     23  1.500                                                     
     2   .000      7  1.500                                                     
  local pseudopotential read in
  atomic valenz-charges read in
  non local Contribution for L=           0  read in
    real space projection operators read in
  non local Contribution for L=           0  read in
    real space projection operators read in
  non local Contribution for L=           1  read in
    real space projection operators read in
  non local Contribution for L=           1  read in
    real space projection operators read in
    PAW grid and wavefunctions read in
 
   number of l-projection  operators is LMAX  =           4
   number of lm-projection operators is LMMAX =           8
 
 POTCAR:   PAW_PBE H 15Jun2001                    
   VRHFIN =H: ultrasoft test                                                    
   LEXCH  = PE                                                                  
   EATOM  =    12.4884 eV,     .9179 Ry                                         
                                                                                
   TITEL  = PAW_PBE H 15Jun2001                                                 
   LULTRA =        F    use ultrasoft PP ?                                      
   IUNSCR =        0    unscreen: 0-lin 1-nonlin 2-no                           
   RPACOR =     .000    partial core radius                                     
   POMASS =    1.000; ZVAL   =    1.000    mass and valenz                      
   RCORE  =    1.100    outmost cutoff radius                                   
   RWIGS  =     .700; RWIGS  =     .370    wigner-seitz radius (au A)           
   ENMAX  =  250.000; ENMIN  =  200.000 eV                                      
   RCLOC  =     .701    cutoff for local pot                                    
   LCOR   =        T    correct aug charges                                     
   LPAW   =        T    paw PP                                                  
   EAUG   =  400.000                                                            
   RMAX   =    2.174    core radius for proj-oper                               
   RAUG   =    1.200    factor for augmentation sphere                          
   RDEP   =    1.112    radius for radial grids                                 
   QCUT   =   -5.749; QGAM   =   11.498    optimization parameters              
                                                                                
   Description                                                                  
     l     E      TYP  RCUT    TYP  RCUT                                        
     0   .000     23  1.100                                                     
     0   .500     23  1.100                                                     
     1  -.300     23  1.100                                                     
  local pseudopotential read in
  atomic valenz-charges read in
  non local Contribution for L=           0  read in
    real space projection operators read in
  non local Contribution for L=           0  read in
    real space projection operators read in
  non local Contribution for L=           1  read in
    real space projection operators read in
    PAW grid and wavefunctions read in
 
   number of l-projection  operators is LMAX  =           3
   number of lm-projection operators is LMMAX =           5
 
 POTCAR:   PAW_PBE N 08Apr2002                    
   VRHFIN =N: s2p3                                                              
   LEXCH  = PE                                                                  
   EATOM  =   264.5486 eV,   19.4438 Ry                                         
                                                                                
   TITEL  = PAW_PBE N 08Apr2002                                                 
   LULTRA =        F    use ultrasoft PP ?                                      
   IUNSCR =        0    unscreen: 0-lin 1-nonlin 2-no                           
   RPACOR =     .000    partial core radius                                     
   POMASS =   14.001; ZVAL   =    5.000    mass and valenz                      
   RCORE  =    1.500    outmost cutoff radius                                   
   RWIGS  =    1.400; RWIGS  =     .741    wigner-seitz radius (au A)           
   ENMAX  =  400.000; ENMIN  =  300.000 eV                                      
   ICORE  =        2    local potential                                         
   LCOR   =        T    correct aug charges                                     
   LPAW   =        T    paw PP                                                  
   EAUG   =  627.112                                                            
   DEXC   =     .000                                                            
   RMAX   =    2.247    core radius for proj-oper                               
   RAUG   =    1.300    factor for augmentation sphere                          
   RDEP   =    1.514    radius for radial grids                                 
   QCUT   =   -5.562; QGAM   =   11.124    optimization parameters              
                                                                                
   Description                                                                  
     l     E      TYP  RCUT    TYP  RCUT                                        
     0   .000     23  1.200                                                     
     0   .000     23  1.200                                                     
     1   .000     23  1.500                                                     
     1   .700     23  1.500                                                     
     2   .000      7  1.500                                                     
  local pseudopotential read in
  atomic valenz-charges read in
  non local Contribution for L=           0  read in
    real space projection operators read in
  non local Contribution for L=           0  read in
    real space projection operators read in
  non local Contribution for L=           1  read in
    real space projection operators read in
  non local Contribution for L=           1  read in
    real space projection operators read in
    PAW grid and wavefunctions read in
 
   number of l-projection  operators is LMAX  =           4
   number of lm-projection operators is LMMAX =           8
 

 ----------------------------------------------------------------------------- 
|                                                                             |
|  ADVICE TO THIS USER RUNNING 'VASP/VAMP'   (HEAR YOUR MASTER'S VOICE ...):  |
|                                                                             |
|      You have a (more or less) 'large supercell' and for larger cells       |
|      it might be more efficient to use real space projection operators      |
|      So try LREAL= Auto  in the INCAR   file.                               |
|      Mind: If you want to do a very accurate calculations keep the          |
|      reciprocal projection scheme          (i.e. LREAL=.FALSE.)             |
|                                                                             |
 ----------------------------------------------------------------------------- 

 PAW_PBE Co 06Sep2000                   :
 energy of atom  1       EATOM= -813.5563
 kinetic energy error for atom=    0.0006 (will be added to EATOM!!)
 PAW_PBE O 08Apr2002                    :
 energy of atom  2       EATOM= -432.3788
 kinetic energy error for atom=    0.0091 (will be added to EATOM!!)
 PAW_PBE C 08Apr2002                    :
 energy of atom  3       EATOM= -147.1560
 kinetic energy error for atom=    0.0032 (will be added to EATOM!!)
 PAW_PBE H 15Jun2001                    :
 energy of atom  4       EATOM=  -12.4884
 kinetic energy error for atom=    0.0002 (will be added to EATOM!!)
 PAW_PBE N 08Apr2002                    :
 energy of atom  5       EATOM= -264.5486
 kinetic energy error for atom=    0.0061 (will be added to EATOM!!)
 
 
 POSCAR: C3 H3 Co O6, H5 N2                      
  positions in direct lattice
  velocities in cartesian coordinates
 exchange correlation table for  LEXCH =        8
   RHO(1)=    0.500       N(1)  =     2000
   RHO(2)=  100.500       N(2)  =     4000
 


--------------------------------------------------------------------------------------------------------


 ion  position               nearest neighbor table
   1  0.539  0.500  0.513-  21 2.10  10 2.10  13 2.11  27 2.12   5 2.12  19 2.12
   2  0.461  0.500  0.013-  22 2.10   9 2.10  14 2.11  28 2.12   6 2.12  20 2.12
   3  0.039  1.000  0.513-  23 2.10  12 2.10  15 2.11  25 2.12   7 2.12  17 2.12
   4  0.961  0.000  0.013-  24 2.10  11 2.10  16 2.11  26 2.12   8 2.12  18 2.12
   5  0.561  0.646  0.668-  29 1.28   1 2.12
   6  0.439  0.354  0.168-  30 1.28   2 2.12
   7  0.061  0.854  0.668-  31 1.28   3 2.12
   8  0.939  0.146  0.168-  32 1.28   4 2.12
   9  0.504  0.641  0.859-  29 1.27   2 2.10
  10  0.496  0.359  0.359-  30 1.27   1 2.10
  11  0.004  0.859  0.859-  31 1.27   4 2.10
  12  0.996  0.141  0.359-  32 1.27   3 2.10
  13  0.446  0.729  0.441-  33 1.27   1 2.11
  14  0.554  0.271  0.941-  34 1.27   2 2.11
  15  0.946  0.771  0.441-  35 1.27   3 2.11
  16  0.054  0.229  0.941-  36 1.27   4 2.11
  17  0.253  0.922  0.439-  33 1.28   3 2.12
  18  0.747  0.078  0.939-  34 1.28   4 2.12
  19  0.753  0.578  0.439-  35 1.28   1 2.12
  20  0.247  0.422  0.939-  36 1.28   2 2.12
  21  0.323  0.426  0.581-  37 1.27   1 2.10
  22  0.677  0.574  0.081-  38 1.27   2 2.10
  23  0.823  0.074  0.581-  39 1.27   3 2.10
  24  0.177  0.926  0.081-  40 1.27   4 2.10
  25  0.130  0.232  0.582-  37 1.28   3 2.12
  26  0.870  0.768  0.082-  38 1.28   4 2.12
  27  0.630  0.268  0.582-  39 1.28   1 2.12
  28  0.370  0.732  0.082-  40 1.28   2 2.12
  29  0.533  0.565  0.763-  41 1.10   9 1.27   5 1.28
  30  0.467  0.435  0.263-  42 1.10  10 1.27   6 1.28
  31  0.033  0.935  0.763-  43 1.10  11 1.27   7 1.28
  32  0.967  0.065  0.263-  44 1.10  12 1.27   8 1.28
  33  0.322  0.791  0.483-  45 1.10  13 1.27  17 1.28
  34  0.678  0.209  0.983-  46 1.10  14 1.27  18 1.28
  35  0.822  0.709  0.483-  47 1.10  15 1.27  19 1.28
  36  0.178  0.291  0.983-  48 1.10  16 1.27  20 1.28
  37  0.267  0.279  0.554-  49 1.10  21 1.27  25 1.28
  38  0.733  0.721  0.054-  50 1.10  22 1.27  26 1.28
  39  0.767  0.221  0.554-  51 1.10  23 1.27  27 1.28
  40  0.233  0.779  0.054-  52 1.10  24 1.27  28 1.28
  41  0.535  0.423  0.761-  29 1.10
  42  0.465  0.577  0.261-  30 1.10
  43  0.035  0.077  0.761-  31 1.10
  44  0.965  0.923  0.261-  32 1.10
  45  0.271  0.729  0.560-  33 1.10
  46  0.729  0.271  0.060-  34 1.10
  47  0.771  0.771  0.560-  35 1.10
  48  0.229  0.229  0.060-  36 1.10
  49  0.339  0.188  0.504-  37 1.10
  50  0.661  0.812  0.004-  38 1.10
  51  0.839  0.312  0.504-  39 1.10
  52  0.161  0.688  0.004-  40 1.10
  53  0.074  0.409  0.677-  77 1.05
  54  0.926  0.591  0.177-  78 1.05
  55  0.574  0.091  0.677-  79 1.05
  56  0.426  0.909  0.177-  80 1.05
  57  0.072  0.628  0.703-  77 1.05
  58  0.928  0.372  0.203-  78 1.05
  59  0.572  0.872  0.703-  79 1.05
  60  0.428  0.128  0.203-  80 1.05
  61  0.148  0.488  0.804-  77 1.05
  62  0.852  0.512  0.304-  78 1.05
  63  0.648  0.012  0.804-  79 1.05
  64  0.352  0.988  0.304-  80 1.05
  65  0.916  0.396  0.852-  73 1.03
  66  0.084  0.604  0.352-  74 1.03
  67  0.416  0.104  0.852-  75 1.03
  68  0.584  0.896  0.352-  76 1.03
  69  0.898  0.608  0.839-  73 1.03
  70  0.102  0.392  0.339-  74 1.03
  71  0.398  0.892  0.839-  75 1.03
  72  0.602  0.108  0.339-  76 1.03
  73  0.908  0.495  0.792-  69 1.03  65 1.03  77 1.45
  74  0.092  0.505  0.292-  70 1.03  66 1.03  78 1.45
  75  0.408  0.005  0.792-  71 1.03  67 1.03  79 1.45
  76  0.592  0.995  0.292-  72 1.03  68 1.03  80 1.45
  77  0.061  0.505  0.741-  53 1.05  61 1.05  57 1.05  73 1.45
  78  0.939  0.495  0.241-  54 1.05  62 1.05  58 1.05  74 1.45
  79  0.561  0.995  0.741-  55 1.05  63 1.05  59 1.05  75 1.45
  80  0.439  0.005  0.241-  56 1.05  64 1.05  60 1.05  76 1.45
 
  LATTYP: Found a simple orthorhombic cell.
 ALAT       =     7.7318276334
 B/A-ratio  =     1.1184685592
 C/A-ratio  =     1.4816055615
  
  Lattice vectors:
  
 A1 = (   0.0000000000,  -7.7318276334,   0.0000000000)
 A2 = (  -8.6478061128,   0.0000000000,   0.0000000000)
 A3 = (   0.0000000000,   0.0000000000, -11.4555188221)


Analysis of symmetry for initial positions (statically):
=====================================================================
 Subroutine PRICEL returns:
 Original cell was already a primitive cell.
 

 Routine SETGRP: Setting up the symmetry group for a 
 simple orthorhombic supercell.


 Subroutine GETGRP returns: Found  4 space group operations
 (whereof  1 operations were pure point group operations)
 out of a pool of  8 trial point group operations.


The static configuration has the point symmetry C_1 .
 The point group associated with its full space group is C_2v.


Analysis of symmetry for dynamics (positions and initial velocities):
=====================================================================
 Subroutine PRICEL returns:
 Original cell was already a primitive cell.
 

 Routine SETGRP: Setting up the symmetry group for a 
 simple orthorhombic supercell.


 Subroutine GETGRP returns: Found  4 space group operations
 (whereof  1 operations were pure point group operations)
 out of a pool of  8 trial point group operations.


The dynamic configuration has the point symmetry C_1 .
 The point group associated with its full space group is C_2v.


Analysis of magnetic symmetry:
=====================================================================
 Subroutine PRICEL returns:
 Original cell was already a primitive cell.
 

 Subroutine MAGSYM returns: Found  4 space group operations
 (whereof  1 operations were pure point group operations)
 out of a pool of  4 trial space group operations
 (whereof  1 operations were pure point group operations)
 and found also     1 'primitive' translations


The magnetic configuration has the point symmetry C_1 .
 The point group associated with its full space group is C_2v.
 
 
 KPOINTS: Automatic mesh                          

Automatic generation of k-mesh.
Space group operators:
 irot       det(A)        alpha          n_x          n_y          n_z        tau_x        tau_y        tau_z
    1     1.000000     0.000000     1.000000     0.000000     0.000000     0.000000     0.000000     0.000000
    2     1.000000   180.000000     0.000000     0.000000     1.000000     0.000000    -0.000000    -0.500000
    3    -1.000000   179.999999     1.000000     0.000000     0.000000    -0.500000    -0.500000    -0.500000
    4    -1.000000   180.000000     0.000000     1.000000     0.000000    -0.500000    -0.500000     0.000000
 
 Subroutine IBZKPT returns following result:
 ===========================================
 
 Found     18 irreducible k-points:
 
 Following reciprocal coordinates:
            Coordinates               Weight
  0.000000  0.000000  0.000000      1.000000
  0.200000  0.000000  0.000000      2.000000
  0.400000  0.000000  0.000000      2.000000
  0.000000  0.200000  0.000000      2.000000
  0.200000  0.200000  0.000000      4.000000
  0.400000  0.200000  0.000000      4.000000
  0.000000  0.400000  0.000000      2.000000
  0.200000  0.400000  0.000000      4.000000
  0.400000  0.400000  0.000000      4.000000
  0.000000  0.000000  0.333333      2.000000
  0.200000  0.000000  0.333333      4.000000
  0.400000  0.000000  0.333333      4.000000
  0.000000  0.200000  0.333333      4.000000
  0.200000  0.200000  0.333333      8.000000
  0.400000  0.200000  0.333333      8.000000
  0.000000  0.400000  0.333333      4.000000
  0.200000  0.400000  0.333333      8.000000
  0.400000  0.400000  0.333333      8.000000
 
 Following cartesian coordinates:
            Coordinates               Weight
  0.000000  0.000000  0.000000      1.000000
  0.023127  0.000000  0.000000      2.000000
  0.046255  0.000000  0.000000      2.000000
  0.000000  0.025867  0.000000      2.000000
  0.023127  0.025867  0.000000      4.000000
  0.046255  0.025867  0.000000      4.000000
  0.000000  0.051734  0.000000      2.000000
  0.023127  0.051734  0.000000      4.000000
  0.046255  0.051734  0.000000      4.000000
  0.000000  0.000000  0.029098      2.000000
  0.023127  0.000000  0.029098      4.000000
  0.046255  0.000000  0.029098      4.000000
  0.000000  0.025867  0.029098      4.000000
  0.023127  0.025867  0.029098      8.000000
  0.046255  0.025867  0.029098      8.000000
  0.000000  0.051734  0.029098      4.000000
  0.023127  0.051734  0.029098      8.000000
  0.046255  0.051734  0.029098      8.000000
 
 
 Subroutine IBZKPT_HF returns following result:
 ==============================================
 
 Found     75 k-points in 1st BZ
 the following     75 k-points will be used (e.g. in the exchange kernel)
 Following reciprocal coordinates:   # in IRBZ
  0.000000  0.000000  0.000000    0.01333333   1 t-inv F
  0.200000  0.000000  0.000000    0.01333333   2 t-inv F
  0.400000  0.000000  0.000000    0.01333333   3 t-inv F
  0.000000  0.200000  0.000000    0.01333333   4 t-inv F
  0.200000  0.200000  0.000000    0.01333333   5 t-inv F
  0.400000  0.200000  0.000000    0.01333333   6 t-inv F
  0.000000  0.400000  0.000000    0.01333333   7 t-inv F
  0.200000  0.400000  0.000000    0.01333333   8 t-inv F
  0.400000  0.400000  0.000000    0.01333333   9 t-inv F
  0.000000  0.000000  0.333333    0.01333333  10 t-inv F
  0.200000  0.000000  0.333333    0.01333333  11 t-inv F
  0.400000  0.000000  0.333333    0.01333333  12 t-inv F
  0.000000  0.200000  0.333333    0.01333333  13 t-inv F
  0.200000  0.200000  0.333333    0.01333333  14 t-inv F
  0.400000  0.200000  0.333333    0.01333333  15 t-inv F
  0.000000  0.400000  0.333333    0.01333333  16 t-inv F
  0.200000  0.400000  0.333333    0.01333333  17 t-inv F
  0.400000  0.400000  0.333333    0.01333333  18 t-inv F
 -0.200000  0.000000  0.000000    0.01333333   2 t-inv F spinflp
 -0.400000  0.000000  0.000000    0.01333333   3 t-inv F spinflp
  0.000000 -0.200000  0.000000    0.01333333   4 t-inv F spinflp
 -0.200000 -0.200000  0.000000    0.01333333   5 t-inv F spinflp
 -0.200000  0.200000  0.000000    0.01333333   5 t-inv F
  0.200000 -0.200000  0.000000    0.01333333   5 t-inv F spinflp
 -0.400000 -0.200000  0.000000    0.01333333   6 t-inv F spinflp
 -0.400000  0.200000  0.000000    0.01333333   6 t-inv F
  0.400000 -0.200000  0.000000    0.01333333   6 t-inv F spinflp
  0.000000 -0.400000  0.000000    0.01333333   7 t-inv F spinflp
 -0.200000 -0.400000  0.000000    0.01333333   8 t-inv F spinflp
 -0.200000  0.400000  0.000000    0.01333333   8 t-inv F
  0.200000 -0.400000  0.000000    0.01333333   8 t-inv F spinflp
 -0.400000 -0.400000  0.000000    0.01333333   9 t-inv F spinflp
 -0.400000  0.400000  0.000000    0.01333333   9 t-inv F
  0.400000 -0.400000  0.000000    0.01333333   9 t-inv F spinflp
 -0.200000  0.000000  0.333333    0.01333333  11 t-inv F spinflp
 -0.400000  0.000000  0.333333    0.01333333  12 t-inv F spinflp
  0.000000 -0.200000  0.333333    0.01333333  13 t-inv F spinflp
 -0.200000 -0.200000  0.333333    0.01333333  14 t-inv F spinflp
 -0.200000  0.200000  0.333333    0.01333333  14 t-inv F
  0.200000 -0.200000  0.333333    0.01333333  14 t-inv F spinflp
 -0.400000 -0.200000  0.333333    0.01333333  15 t-inv F spinflp
 -0.400000  0.200000  0.333333    0.01333333  15 t-inv F
  0.400000 -0.200000  0.333333    0.01333333  15 t-inv F spinflp
  0.000000 -0.400000  0.333333    0.01333333  16 t-inv F spinflp
 -0.200000 -0.400000  0.333333    0.01333333  17 t-inv F spinflp
 -0.200000  0.400000  0.333333    0.01333333  17 t-inv F
  0.200000 -0.400000  0.333333    0.01333333  17 t-inv F spinflp
 -0.400000 -0.400000  0.333333    0.01333333  18 t-inv F spinflp
 -0.400000  0.400000  0.333333    0.01333333  18 t-inv F
  0.400000 -0.400000  0.333333    0.01333333  18 t-inv F spinflp
  0.000000  0.000000 -0.333333    0.01333333  10 t-inv T
 -0.200000  0.000000 -0.333333    0.01333333  11 t-inv T
  0.200000  0.000000 -0.333333    0.01333333  11 t-inv T spinflp
 -0.400000  0.000000 -0.333333    0.01333333  12 t-inv T
  0.400000  0.000000 -0.333333    0.01333333  12 t-inv T spinflp
  0.000000 -0.200000 -0.333333    0.01333333  13 t-inv T
  0.000000  0.200000 -0.333333    0.01333333  13 t-inv T spinflp
 -0.200000 -0.200000 -0.333333    0.01333333  14 t-inv T
  0.200000  0.200000 -0.333333    0.01333333  14 t-inv T spinflp
  0.200000 -0.200000 -0.333333    0.01333333  14 t-inv T
 -0.200000  0.200000 -0.333333    0.01333333  14 t-inv T spinflp
 -0.400000 -0.200000 -0.333333    0.01333333  15 t-inv T
  0.400000  0.200000 -0.333333    0.01333333  15 t-inv T spinflp
  0.400000 -0.200000 -0.333333    0.01333333  15 t-inv T
 -0.400000  0.200000 -0.333333    0.01333333  15 t-inv T spinflp
  0.000000 -0.400000 -0.333333    0.01333333  16 t-inv T
  0.000000  0.400000 -0.333333    0.01333333  16 t-inv T spinflp
 -0.200000 -0.400000 -0.333333    0.01333333  17 t-inv T
  0.200000  0.400000 -0.333333    0.01333333  17 t-inv T spinflp
  0.200000 -0.400000 -0.333333    0.01333333  17 t-inv T
 -0.200000  0.400000 -0.333333    0.01333333  17 t-inv T spinflp
 -0.400000 -0.400000 -0.333333    0.01333333  18 t-inv T
  0.400000  0.400000 -0.333333    0.01333333  18 t-inv T spinflp
  0.400000 -0.400000 -0.333333    0.01333333  18 t-inv T
 -0.400000  0.400000 -0.333333    0.01333333  18 t-inv T spinflp


--------------------------------------------------------------------------------------------------------




 Dimension of arrays:
   k-points           NKPTS =     18   k-points in BZ     NKDIM =     18   number of bands    NBANDS=    192
   number of dos      NEDOS =    301   number of ions     NIONS =     80
   non local maximal  LDIM  =      6   non local SUM 2l+1 LMDIM =     18
   total plane-waves  NPLWV = 560000
   max r-space proj   IRMAX =      1   max aug-charges    IRDMAX=   7205
   dimension x,y,z NGX =    80 NGY =   70 NGZ =  100
   dimension x,y,z NGXF=    96 NGYF=   90 NGZF=  126
   support grid    NGXF=    96 NGYF=   90 NGZF=  126
   ions per type =               4  24  12  32   8
 NGX,Y,Z   is equivalent  to a cutoff of  15.38, 15.05, 14.51 a.u.
 NGXF,Y,Z  is equivalent  to a cutoff of  18.46, 19.35, 18.29 a.u.


 I would recommend the setting:
   dimension x,y,z NGX =    75 NGY =   67 NGZ =   99
 SYSTEM =  Co-MOF                                  
 POSCAR =  C3 H3 Co O6, H5 N2                      

 Startparameter for this run:
   NWRITE =      2    write-flag & timer
   PREC   = high      normal or accurate (medium, high low for compatibility)
   ISTART =      0    job   : 0-new  1-cont  2-samecut
   ICHARG =      1    charge: 1-file 2-atom 10-const
   ISPIN  =      2    spin polarized calculation?
   LNONCOLLINEAR =      F non collinear calculations
   LSORBIT =      F    spin-orbit coupling
   INIWAV =      1    electr: 0-lowe 1-rand  2-diag
   LASPH  =      F    aspherical Exc in radial PAW
   METAGGA=      F    non-selfconsistent MetaGGA calc.

 Electronic Relaxation 1
   ENCUT  =  700.0 eV  51.45 Ry    7.17 a.u.  18.66 16.68 24.71*2*pi/ulx,y,z
   ENINI  =  700.0     initial cutoff
   ENAUG  =  644.9 eV  augmentation charge cutoff
   NELM   =   2000;   NELMIN=  2; NELMDL= -3     # of ELM steps 
   EDIFF  = 0.1E-05   stopping-criterion for ELM
   LREAL  =      F    real-space projection
   NLSPLINE    = F    spline interpolate recip. space projectors
   LCOMPAT=      F    compatible to vasp.4.4
   GGA_COMPAT  = T    GGA compatible to vasp.4.4-vasp.4.6
   LMAXPAW     = -100 max onsite density
   LMAXMIX     =    2 max onsite mixed and CHGCAR
   VOSKOWN=      0    Vosko Wilk Nusair interpolation
   ROPT   =    0.00000   0.00000   0.00000   0.00000
   ROPT   =    0.00000
 Ionic relaxation
   EDIFFG = 0.1E-04   stopping-criterion for IOM
   NSW    =      0    number of steps for IOM
   NBLOCK =      1;   KBLOCK =      1    inner block; outer block 
   IBRION =     -1    ionic relax: 0-MD 1-quasi-New 2-CG
   NFREE  =      0    steps in history (QN), initial steepest desc. (CG)
   ISIF   =      2    stress and relaxation
   IWAVPR =     10    prediction:  0-non 1-charg 2-wave 3-comb
   ISYM   =      2    0-nonsym 1-usesym 2-fastsym
   LCORR  =      T    Harris-Foulkes like correction to forces

   POTIM  = 0.5000    time-step for ionic-motion
   TEIN   =    0.0    initial temperature
   TEBEG  =    0.0;   TEEND  =   0.0 temperature during run
   SMASS  =  -3.00    Nose mass-parameter (am)
   estimated Nose-frequenzy (Omega)   =  0.10E-29 period in steps =****** mass=  -0.171E-26a.u.
   SCALEE = 1.0000    scale energy and forces
   NPACO  =    256;   APACO  = 16.0  distance and # of slots for P.C.
   PSTRESS=    0.0 pullay stress

  Mass of Ions in am
   POMASS =  58.93 16.00 12.01  1.00 14.00
  Ionic Valenz
   ZVAL   =   9.00  6.00  4.00  1.00  5.00
  Atomic Wigner-Seitz radii
   RWIGS  =  -1.00 -1.00 -1.00 -1.00 -1.00
  virtual crystal weights 
   VCA    =   1.00  1.00  1.00  1.00  1.00
   NELECT =     300.0000    total number of electrons
   NUPDOWN=      -1.0000    fix difference up-down

 DOS related values:
   EMIN   =  10.00;   EMAX   =-10.00  energy-range for DOS
   EFERMI =   0.00
   ISMEAR =     0;   SIGMA  =   0.10  broadening in eV -4-tet -1-fermi 0-gaus

 Electronic relaxation 2 (details)
   IALGO  =     38    algorithm
   LDIAG  =      T    sub-space diagonalisation (order eigenvalues)
   LSUBROT=      F    optimize rotation matrix (better conditioning)
   TURBO    =      0    0=normal 1=particle mesh
   IRESTART =      0    0=no restart 2=restart with 2 vectors
   NREBOOT  =      0    no. of reboots
   NMIN     =      0    reboot dimension
   EREF     =   0.00    reference energy to select bands
   IMIX   =      4    mixing-type and parameters
     AMIX     =   0.40;   BMIX     =  1.00
     AMIX_MAG =   1.60;   BMIX_MAG =  1.00
     AMIN     =   0.10
     WC   =   100.;   INIMIX=   1;  MIXPRE=   1;  MAXMIX= -45

 Intra band minimization:
   WEIMIN = 0.0000     energy-eigenvalue tresh-hold
   EBREAK =  0.13E-08  absolut break condition
   DEPER  =   0.30     relativ break condition  

   TIME   =   0.40     timestep for ELM

  volume/ion in A,a.u.               =       9.57        64.61
  Fermi-wavevector in a.u.,A,eV,Ry     =   1.197791  2.263496 19.520315  1.434703
  Thomas-Fermi vector in A             =   2.333696
 
 Write flags
   LWAVE  =      F    write WAVECAR
   LCHARG =      T    write CHGCAR
   LVTOT  =      F    write LOCPOT, total local potential
   LVHAR  =      F    write LOCPOT, Hartree potential only
   LELF   =      F    write electronic localiz. function (ELF)
   LORBIT =     11    0 simple, 1 ext, 2 COOP (PROOUT)


 Dipole corrections
   LMONO  =      F    monopole corrections only (constant potential shift)
   LDIPOL =      F    correct potential (dipole corrections)
   IDIPOL =      0    1-x, 2-y, 3-z, 4-all directions 
   EPSILON=  1.0000000 bulk dielectric constant

 LDA+U is selected, type is set to LDAUTYPE =  2
   angular momentum for each species LDAUL =     2   -1   -1   -1   -1
   U (eV)           for each species LDAUU =   2.5  0.0  0.0  0.0  0.0
   J (eV)           for each species LDAUJ =   0.5  0.0  0.0  0.0  0.0
 Exchange correlation treatment:
   GGA     =    --    GGA type
   LEXCH   =     8    internal setting for exchange type
   VOSKOWN=      0    Vosko Wilk Nusair interpolation
   LHFCALC =     F    Hartree Fock is set to
   LHFONE  =     F    Hartree Fock one center treatment
   AEXX    =    0.0000 exact exchange contribution

 Linear response parameters
   LEPSILON=     F    determine dielectric tensor
   LRPA    =     F    only Hartree local field effects (RPA)
   LNABLA  =     F    use nabla operator in PAW spheres
   LVEL    =     F    velocity operator in full k-point grid
   LINTERFAST=   F  fast interpolation
   KINTER  =     0    interpolate to denser k-point grid
   CSHIFT  =0.1000    complex shift for real part using Kramers Kronig
   OMEGAMAX=  -1.0    maximum frequency
   DEG_THRESHOLD= 0.2000000E-02 threshold for treating states as degnerate
   RTIME   =    0.100 relaxation time in fs

 Orbital magnetization related:
   ORBITALMAG=     F  switch on orbital magnetization
   LCHIMAG   =     F  perturbation theory with respect to B field
   DQ        =  0.001000  dq finite difference perturbation B field

 PEAD related settings:
   LPEAD      =     T    switch on PEAD
   IPEAD      =     4    finite difference order for dpsi/dk
   LCALCPOL   =     T    calculate macroscopic polarization
   LCALCEPS   =     F    calculate dielectric tensor
   EFIELD_PEAD=    0.0000    0.0000    0.0000
   SKIP_EDOTP =     F
   LRPA       =     F
   SKIP_SCF   =     F


--------------------------------------------------------------------------------------------------------


 Static calculation
 charge density and potential will be updated during run
 spin polarized calculation
 Variant of blocked Davidson
 Davidson routine will perform the subspace rotation
 perform sub-space diagonalisation
    after iterative eigenvector-optimisation
 modified Broyden-mixing scheme, WC =      100.0
 initial mixing is a Kerker type mixing with AMIX =  0.4000 and BMIX =      1.0000
 Hartree-type preconditioning will be used
 using additional bands           42
 reciprocal scheme for non local part
 use partial core corrections
 calculate Harris-corrections to forces 
   (improved forces if not selfconsistent)
 use gradient corrections 
 use of overlap-Matrix (Vanderbilt PP)
 Gauss-broadening in eV      SIGMA  =   0.10


--------------------------------------------------------------------------------------------------------


  energy-cutoff  :      700.00
  volume of cell :      765.95
      direct lattice vectors                 reciprocal lattice vectors
     8.647806113  0.000000000  0.000000000     0.115636265  0.000000000  0.000000000
     0.000000000  7.731827633  0.000000000     0.000000000  0.129335527  0.000000000
     0.000000000  0.000000000 11.455518822     0.000000000  0.000000000  0.087294169

  length of vectors
     8.647806113  7.731827633 11.455518822     0.115636265  0.129335527  0.087294169


 
 k-points in units of 2pi/SCALE and weight: Automatic mesh                          
   0.00000000  0.00000000  0.00000000       0.013
   0.02312725  0.00000000  0.00000000       0.027
   0.04625451  0.00000000  0.00000000       0.027
   0.00000000  0.02586711  0.00000000       0.027
   0.02312725  0.02586711  0.00000000       0.053
   0.04625451  0.02586711  0.00000000       0.053
   0.00000000  0.05173421  0.00000000       0.027
   0.02312725  0.05173421  0.00000000       0.053
   0.04625451  0.05173421  0.00000000       0.053
   0.00000000  0.00000000  0.02909806       0.027
   0.02312725  0.00000000  0.02909806       0.053
   0.04625451  0.00000000  0.02909806       0.053
   0.00000000  0.02586711  0.02909806       0.053
   0.02312725  0.02586711  0.02909806       0.107
   0.04625451  0.02586711  0.02909806       0.107
   0.00000000  0.05173421  0.02909806       0.053
   0.02312725  0.05173421  0.02909806       0.107
   0.04625451  0.05173421  0.02909806       0.107
 
 k-points in reciprocal lattice and weights: Automatic mesh                          
   0.00000000  0.00000000  0.00000000       0.013
   0.20000000  0.00000000  0.00000000       0.027
   0.40000000  0.00000000  0.00000000       0.027
   0.00000000  0.20000000  0.00000000       0.027
   0.20000000  0.20000000  0.00000000       0.053
   0.40000000  0.20000000  0.00000000       0.053
   0.00000000  0.40000000  0.00000000       0.027
   0.20000000  0.40000000  0.00000000       0.053
   0.40000000  0.40000000  0.00000000       0.053
   0.00000000  0.00000000  0.33333333       0.027
   0.20000000  0.00000000  0.33333333       0.053
   0.40000000  0.00000000  0.33333333       0.053
   0.00000000  0.20000000  0.33333333       0.053
   0.20000000  0.20000000  0.33333333       0.107
   0.40000000  0.20000000  0.33333333       0.107
   0.00000000  0.40000000  0.33333333       0.053
   0.20000000  0.40000000  0.33333333       0.107
   0.40000000  0.40000000  0.33333333       0.107
 
 position of ions in fractional coordinates (direct lattice) 
   0.53851515  0.50003875  0.51262477
   0.46148485  0.49996125  0.01262478
   0.03851513  0.99996128  0.51262477
   0.96148485  0.00003880  0.01262478
   0.56107670  0.64642642  0.66814533
   0.43892332  0.35357358  0.16814532
   0.06107662  0.85357355  0.66814533
   0.93892330  0.14642644  0.16814532
   0.50398523  0.64068866  0.85870979
   0.49601477  0.35931137  0.35870975
   0.00398532  0.85931137  0.85870979
   0.99601477  0.14068865  0.35870975
   0.44593425  0.72889229  0.44105359
   0.55406575  0.27110771  0.94105355
   0.94593425  0.77110774  0.44105359
   0.05406573  0.22889223  0.94105355
   0.25252287  0.92159168  0.43926933
   0.74747713  0.07840835  0.93926933
   0.75252287  0.57840835  0.43926933
   0.24747713  0.42159171  0.93926933
   0.32258457  0.42553161  0.58060542
   0.67741545  0.57446836  0.08060535
   0.82258455  0.07446837  0.58060542
   0.17741543  0.92553167  0.08060535
   0.13043188  0.23209023  0.58178554
   0.86956814  0.76790975  0.08178554
   0.63043186  0.26790978  0.58178554
   0.36956812  0.73209022  0.08178554
   0.53311557  0.56539020  0.76287285
   0.46688443  0.43460980  0.26287287
   0.03311561  0.93460983  0.76287285
   0.96688448  0.06539020  0.26287287
   0.32190291  0.79097824  0.48264605
   0.67809706  0.20902176  0.98264600
   0.82190294  0.70902173  0.48264605
   0.17809709  0.29097818  0.98264600
   0.26720407  0.27912748  0.55417702
   0.73279596  0.72087252  0.05417703
   0.76720404  0.22087250  0.55417702
   0.23279593  0.77912745  0.05417703
   0.53473800  0.42290658  0.76060490
   0.46526200  0.57709339  0.26060485
   0.03473795  0.07709341  0.76060490
   0.96526200  0.92290658  0.26060485
   0.27087028  0.72908484  0.56032256
   0.72912969  0.27091519  0.06032250
   0.77087031  0.77091519  0.56032256
   0.22912972  0.22908477  0.06032250
   0.33936673  0.18763122  0.50424494
   0.66063324  0.81236878  0.00424502
   0.83936676  0.31236878  0.50424494
   0.16063328  0.68763119  0.00424502
   0.07368557  0.40945080  0.67700919
   0.92631447  0.59054917  0.17700925
   0.57368559  0.09054919  0.67700919
   0.42631444  0.90945080  0.17700925
   0.07151100  0.62848065  0.70277796
   0.92848899  0.37151935  0.20277790
   0.57151101  0.87151938  0.70277796
   0.42848899  0.12848065  0.20277790
   0.14779384  0.48756856  0.80362956
   0.85220613  0.51243147  0.30362960
   0.64779387  0.01243146  0.80362956
   0.35220616  0.98756853  0.30362960
   0.91644997  0.39589409  0.85192640
   0.08355004  0.60410585  0.35192642
   0.41644994  0.10410590  0.85192640
   0.58355003  0.89589412  0.35192642
   0.89774405  0.60791867  0.83884897
   0.10225594  0.39208137  0.33884889
   0.39774405  0.89208137  0.83884897
   0.60225595  0.10791865  0.33884889
   0.90773570  0.49485433  0.79211361
   0.09226429  0.50514567  0.29211357
   0.40773573  0.00514568  0.79211361
   0.59226430  0.99485430  0.29211357
   0.06075793  0.50531609  0.74080249
   0.93924211  0.49468391  0.24080247
   0.56075794  0.99468387  0.74080249
   0.43924208  0.00531611  0.24080247
 
 position of ions in cartesian coordinates  (Angst):
   4.65697459  3.86621341  5.87238275
   3.99083153  3.86561422  0.14462338
   0.33307142  7.73152827  5.87238275
   8.31473458  0.00030002  0.14462338
   4.85208254  4.99805769  7.65395141
   3.79572381  2.73376995  1.92619187
   0.52817877  6.59968352  7.65395141
   8.11962663  1.13214399  1.92619187
   4.35836659  4.95369429  9.83696617
   4.28943953  2.77813358  4.10920629
   0.03446427  6.64404740  9.83696617
   8.61334258  1.08778036  4.10920629
   3.85635296  5.63566953  5.05249767
   4.79145316  2.09615810 10.78025660
   8.18025601  5.96207216  5.05249767
   0.46754998  1.76975523 10.78025660
   2.18376882  7.12558800  5.03205805
   6.46403729  0.60623981 10.75981746
   6.50767188  4.47215369  5.03205805
   2.14013423  3.25967442 10.75981746
   2.78964886  3.29013706  6.65113632
   5.85815750  4.44169034  0.92337615
   7.11355167  0.57577663  6.65113632
   1.53425420  7.15605135  0.92337615
   1.12794964  1.79448167  6.66465518
   7.51985672  5.93734584  0.93689583
   5.45185245  2.07143226  6.66465518
   3.19595342  5.66039537  0.93689583
   4.61028012  4.37149960  8.73910425
   4.03752599  3.36032803  3.01134508
   0.28637739  7.22624209  8.73910425
   8.36142953  0.50558572  3.01134508
   2.78375395  6.11570742  5.52896086
   5.86405192  1.61612021 11.25671979
   7.10765725  5.48203379  5.52896086
   1.54014910  2.24979313 11.25671979
   2.31072899  2.15816560  6.34838530
   6.33707737  5.57366204  0.62062600
   6.63463180  1.70774810  6.34838530
   2.01317407  6.02407917  0.62062600
   4.62431054  3.26984078  8.71312370
   4.02349558  4.46198662  2.98536382
   0.30040704  0.59607298  8.71312370
   8.34739863  7.13575460  2.98536382
   2.34243365  5.63715834  6.41878558
   6.30537223  2.09466953  0.69102551
   6.66633694  5.96058335  6.41878558
   1.98146941  1.77124393  0.69102551
   2.93477772  1.45073222  5.77638740
   5.71302816  6.28109541  0.04862888
   7.25868101  2.41518159  5.77638740
   1.38912546  5.31664580  0.04862888
   0.63721850  3.16580302  7.75549148
   8.01058791  4.56602437  2.02773278
   4.96112173  0.70011070  7.75549148
   3.68668461  7.03171684  2.02773278
   0.61841323  4.85930409  8.05068620
   8.02939276  2.87252354  2.32292608
   4.94231641  6.73843759  8.05068620
   3.70548970  0.99339027  2.32292608
   1.27809247  3.76979604  9.20599351
   7.36971340  3.96203184  3.47823457
   5.60199577  0.09611787  9.20599351
   3.04581058  7.63570961  3.47823457
   7.92528165  3.06098484  9.75925895
   0.72252457  4.67084232  4.03149977
   3.60137836  0.80492886  9.75925895
   5.04642751  6.92689890  4.03149977
   7.76351648  4.70032234  9.60945016
   0.88428957  3.03150553  3.88168980
   3.43961343  6.89741935  9.60945016
   5.20819269  0.83440841  3.88168980
   7.84992235  3.82612841  9.07407233
   0.79788366  3.90569922  3.34631244
   3.52601952  0.03978547  9.07407233
   5.12178682  7.69204199  3.34631244
   0.52542279  3.90701694  8.48627689
   8.12238368  3.82481069  2.75851725
   4.84932597  7.69072427  8.48627689
   3.79848038  0.04110323  2.75851725
 


--------------------------------------------------------------------------------------------------------


 k-point  1 :   0.0000 0.0000 0.0000  plane waves:   32229
 k-point  2 :   0.2000 0.0000 0.0000  plane waves:   32229
 k-point  3 :   0.4000 0.0000 0.0000  plane waves:   32214
 k-point  4 :   0.0000 0.2000 0.0000  plane waves:   32197
 k-point  5 :   0.2000 0.2000 0.0000  plane waves:   32192
 k-point  6 :   0.4000 0.2000 0.0000  plane waves:   32218
 k-point  7 :   0.0000 0.4000 0.0000  plane waves:   32208
 k-point  8 :   0.2000 0.4000 0.0000  plane waves:   32246
 k-point  9 :   0.4000 0.4000 0.0000  plane waves:   32188
 k-point 10 :   0.0000 0.0000 0.3333  plane waves:   32242
 k-point 11 :   0.2000 0.0000 0.3333  plane waves:   32207
 k-point 12 :   0.4000 0.0000 0.3333  plane waves:   32219
 k-point 13 :   0.0000 0.2000 0.3333  plane waves:   32211
 k-point 14 :   0.2000 0.2000 0.3333  plane waves:   32216
 k-point 15 :   0.4000 0.2000 0.3333  plane waves:   32210
 k-point 16 :   0.0000 0.4000 0.3333  plane waves:   32216
 k-point 17 :   0.2000 0.4000 0.3333  plane waves:   32214
 k-point 18 :   0.4000 0.4000 0.3333  plane waves:   32183

 maximum and minimum number of plane-waves per node :     32246    32183

 maximum number of plane-waves:     32246
 maximum index in each direction: 
   IXMAX=   18   IYMAX=   16   IZMAX=   24
   IXMIN=  -19   IYMIN=  -17   IZMIN=  -25

 NGX is ok and might be reduce to  76
 NGY is ok and might be reduce to  68
 NGZ is ok and might be reduce to 100

 serial   3D FFT for wavefunctions
 parallel 3D FFT for charge:
    minimum data exchange during FFTs selected (reduces bandwidth)


 total amount of memory used by VASP on root node   618127. kBytes
========================================================================

   base      :      30000. kBytes
   nonl-proj :     459325. kBytes
   fftplans  :       3190. kBytes
   grid      :      47369. kBytes
   one-center:       2488. kBytes
   wavefun   :      75755. kBytes
 
     INWAV:  cpu time    0.0000: real time    0.0000
 Broyden mixing: mesh for mixing (old mesh)
   NGX = 37   NGY = 33   NGZ = 49
  (NGX  = 96   NGY  = 90   NGZ  =126)
  gives a total of  59829 points

 initial charge density was supplied:
 number of electron     300.0000119 magnetization       0.0000000
 keeping initial charge density in first step


--------------------------------------------------------------------------------------------------------


 Maximum index for augmentation-charges          398 (set IRDMAX)


--------------------------------------------------------------------------------------------------------


 First call to EWALD:  gamma=   0.194
 Maximum number of real-space cells 3x 3x 2
 Maximum number of reciprocal cells 3x 2x 3

 FEWALD executed in parallel
    FEWALD:  cpu time    0.0024: real time    0.0024


----------------------------------------- Iteration    1(   1)  ---------------------------------------


    POTLOK:  cpu time    0.0963: real time    0.0964
    SETDIJ:  cpu time    0.0147: real time    0.0162
atom =   1  type =  1  l = 2
 
 onsite density matrix
 
spin component  1
 
  0.4352 -0.0853 -0.0071 -0.0077  0.0000
 -0.0853  0.5129 -0.0045  0.0062  0.0077
 -0.0071 -0.0045  0.4489 -0.0492  0.0779
 -0.0077  0.0062 -0.0492  0.3780 -0.0853
  0.0000  0.0077  0.0779 -0.0853  0.4352
 
spin component  2
 
  0.9762  0.0003  0.0000  0.0002  0.0000
  0.0003  0.9756  0.0001 -0.0000 -0.0002
  0.0000  0.0001  0.9757  0.0002 -0.0003
  0.0002 -0.0000  0.0002  0.9761  0.0003
  0.0000 -0.0002 -0.0003  0.0003  0.9762
 
 occupancies and eigenvectors
 
  o =  0.3158  v =  0.0167 -0.0428 -0.0647  0.7894  0.6087  0.0000  0.0000  0.0000  0.0000  0.0000      0.0000  0.0000  0.0000  0.0000  0.0000  0.0000  0.0000  0.0000  0.0000  0.0000
  o =  0.3693  v = -0.5606 -0.3558 -0.5909 -0.3135  0.3342  0.0000  0.0000  0.0000  0.0000  0.0000      0.0000  0.0000  0.0000  0.0000  0.0000  0.0000  0.0000  0.0000  0.0000  0.0000
  o =  0.3891  v = -0.6270 -0.4073  0.5212  0.2720 -0.3087  0.0000  0.0000  0.0000  0.0000  0.0000      0.0000  0.0000  0.0000  0.0000  0.0000  0.0000  0.0000  0.0000  0.0000  0.0000
  o =  0.5678  v = -0.0596  0.1023 -0.6079  0.4520 -0.6420  0.0000  0.0000  0.0000  0.0000  0.0000      0.0000  0.0000  0.0000  0.0000  0.0000  0.0000  0.0000  0.0000  0.0000  0.0000
  o =  0.5683  v =  0.5373 -0.8338 -0.0737  0.0158 -0.1017  0.0000  0.0000  0.0000  0.0000  0.0000      0.0000  0.0000  0.0000  0.0000  0.0000  0.0000  0.0000  0.0000  0.0000  0.0000
  o =  0.9754  v =  0.0000  0.0000  0.0000  0.0000  0.0000  0.3376 -0.7586  0.4650 -0.2930  0.0927      0.0000  0.0000  0.0000  0.0000  0.0000  0.0000  0.0000  0.0000  0.0000  0.0000
  o =  0.9755  v =  0.0000  0.0000  0.0000  0.0000  0.0000 -0.1471  0.4958  0.5991 -0.3417  0.5068      0.0000  0.0000  0.0000  0.0000  0.0000  0.0000  0.0000  0.0000  0.0000  0.0000
  o =  0.9760  v =  0.0000  0.0000  0.0000  0.0000  0.0000  0.4724  0.1356 -0.5607 -0.6173  0.2510      0.0000  0.0000  0.0000  0.0000  0.0000  0.0000  0.0000  0.0000  0.0000  0.0000
  o =  0.9764  v =  0.0000  0.0000  0.0000  0.0000  0.0000 -0.7744 -0.3774 -0.2939 -0.2873  0.2982      0.0000  0.0000  0.0000  0.0000  0.0000  0.0000  0.0000  0.0000  0.0000  0.0000
  o =  0.9765  v =  0.0000  0.0000  0.0000  0.0000  0.0000  0.2039 -0.1342 -0.1551  0.5777  0.7633      0.0000  0.0000  0.0000  0.0000  0.0000  0.0000  0.0000  0.0000  0.0000  0.0000
atom =   2  type =  1  l = 2
 
 onsite density matrix
 
spin component  1
 
  0.9762 -0.0003  0.0000 -0.0002  0.0000
 -0.0003  0.9756 -0.0001 -0.0000  0.0002
  0.0000 -0.0001  0.9757 -0.0002 -0.0003
 -0.0002 -0.0000 -0.0002  0.9761 -0.0003
  0.0000  0.0002 -0.0003 -0.0003  0.9762
 
spin component  2
 
  0.4352  0.0853 -0.0071  0.0077  0.0000
  0.0853  0.5129  0.0045  0.0062 -0.0077
 -0.0071  0.0045  0.4489  0.0492  0.0779
  0.0077  0.0062  0.0492  0.3780  0.0853
  0.0000 -0.0077  0.0779  0.0853  0.4352
 
 occupancies and eigenvectors
 
  o =  0.3158  v =  0.0000  0.0000  0.0000  0.0000  0.0000  0.0167  0.0428 -0.0647 -0.7894  0.6087      0.0000  0.0000  0.0000  0.0000  0.0000  0.0000  0.0000  0.0000  0.0000  0.0000
  o =  0.3693  v =  0.0000  0.0000  0.0000  0.0000  0.0000  0.5606 -0.3558  0.5909 -0.3135 -0.3342      0.0000  0.0000  0.0000  0.0000  0.0000  0.0000  0.0000  0.0000  0.0000  0.0000
  o =  0.3891  v =  0.0000  0.0000  0.0000  0.0000  0.0000  0.6270 -0.4073 -0.5212  0.2720  0.3087      0.0000  0.0000  0.0000  0.0000  0.0000  0.0000  0.0000  0.0000  0.0000  0.0000
  o =  0.5678  v =  0.0000  0.0000  0.0000  0.0000  0.0000 -0.0596 -0.1023 -0.6079 -0.4520 -0.6420      0.0000  0.0000  0.0000  0.0000  0.0000  0.0000  0.0000  0.0000  0.0000  0.0000
  o =  0.5683  v =  0.0000  0.0000  0.0000  0.0000  0.0000  0.5373  0.8338 -0.0737 -0.0158 -0.1017      0.0000  0.0000  0.0000  0.0000  0.0000  0.0000  0.0000  0.0000  0.0000  0.0000
  o =  0.9754  v =  0.3376  0.7586  0.4650  0.2930  0.0927  0.0000  0.0000  0.0000  0.0000  0.0000      0.0000  0.0000  0.0000  0.0000  0.0000  0.0000  0.0000  0.0000  0.0000  0.0000
  o =  0.9755  v = -0.1471 -0.4958  0.5991  0.3417  0.5068  0.0000  0.0000  0.0000  0.0000  0.0000      0.0000  0.0000  0.0000  0.0000  0.0000  0.0000  0.0000  0.0000  0.0000  0.0000
  o =  0.9760  v =  0.4724 -0.1356 -0.5607  0.6173  0.2510  0.0000  0.0000  0.0000  0.0000  0.0000      0.0000  0.0000  0.0000  0.0000  0.0000  0.0000  0.0000  0.0000  0.0000  0.0000
  o =  0.9764  v = -0.7744  0.3774 -0.2939  0.2873  0.2982  0.0000  0.0000  0.0000  0.0000  0.0000      0.0000  0.0000  0.0000  0.0000  0.0000  0.0000  0.0000  0.0000  0.0000  0.0000
  o =  0.9765  v =  0.2039  0.1342 -0.1551 -0.5777  0.7633  0.0000  0.0000  0.0000  0.0000  0.0000      0.0000  0.0000  0.0000  0.0000  0.0000  0.0000  0.0000  0.0000  0.0000  0.0000
atom =   3  type =  1  l = 2
 
 onsite density matrix
 
spin component  1
 
  0.9762  0.0003 -0.0000 -0.0002  0.0000
  0.0003  0.9756 -0.0001  0.0000  0.0002
 -0.0000 -0.0001  0.9757  0.0002 -0.0003
 -0.0002  0.0000  0.0002  0.9761  0.0003
  0.0000  0.0002 -0.0003  0.0003  0.9762
 
spin component  2
 
  0.4352 -0.0853  0.0071  0.0077  0.0000
 -0.0853  0.5129  0.0045 -0.0062 -0.0077
  0.0071  0.0045  0.4489 -0.0492  0.0779
  0.0077 -0.0062 -0.0492  0.3780 -0.0853
  0.0000 -0.0077  0.0779 -0.0853  0.4352
 
 occupancies and eigenvectors
 
  o =  0.3158  v =  0.0000  0.0000  0.0000  0.0000  0.0000 -0.0167  0.0428 -0.0647  0.7894  0.6087      0.0000  0.0000  0.0000  0.0000  0.0000  0.0000  0.0000  0.0000  0.0000  0.0000
  o =  0.3693  v =  0.0000  0.0000  0.0000  0.0000  0.0000  0.5606  0.3558 -0.5909 -0.3135  0.3342      0.0000  0.0000  0.0000  0.0000  0.0000  0.0000  0.0000  0.0000  0.0000  0.0000
  o =  0.3891  v =  0.0000  0.0000  0.0000  0.0000  0.0000  0.6270  0.4073  0.5212  0.2720 -0.3087      0.0000  0.0000  0.0000  0.0000  0.0000  0.0000  0.0000  0.0000  0.0000  0.0000
  o =  0.5678  v =  0.0000  0.0000  0.0000  0.0000  0.0000  0.0596 -0.1023 -0.6079  0.4520 -0.6420      0.0000  0.0000  0.0000  0.0000  0.0000  0.0000  0.0000  0.0000  0.0000  0.0000
  o =  0.5683  v =  0.0000  0.0000  0.0000  0.0000  0.0000 -0.5373  0.8338 -0.0737  0.0158 -0.1017      0.0000  0.0000  0.0000  0.0000  0.0000  0.0000  0.0000  0.0000  0.0000  0.0000
  o =  0.9754  v =  0.3376 -0.7586 -0.4650  0.2930 -0.0927  0.0000  0.0000  0.0000  0.0000  0.0000      0.0000  0.0000  0.0000  0.0000  0.0000  0.0000  0.0000  0.0000  0.0000  0.0000
  o =  0.9755  v =  0.1471 -0.4958  0.5991 -0.3417  0.5068  0.0000  0.0000  0.0000  0.0000  0.0000      0.0000  0.0000  0.0000  0.0000  0.0000  0.0000  0.0000  0.0000  0.0000  0.0000
  o =  0.9760  v =  0.4724  0.1356  0.5607  0.6173 -0.2510  0.0000  0.0000  0.0000  0.0000  0.0000      0.0000  0.0000  0.0000  0.0000  0.0000  0.0000  0.0000  0.0000  0.0000  0.0000
  o =  0.9764  v = -0.7744 -0.3774  0.2939  0.2873 -0.2982  0.0000  0.0000  0.0000  0.0000  0.0000      0.0000  0.0000  0.0000  0.0000  0.0000  0.0000  0.0000  0.0000  0.0000  0.0000
  o =  0.9765  v =  0.2039 -0.1342  0.1551 -0.5777 -0.7633  0.0000  0.0000  0.0000  0.0000  0.0000      0.0000  0.0000  0.0000  0.0000  0.0000  0.0000  0.0000  0.0000  0.0000  0.0000
atom =   4  type =  1  l = 2
 
 onsite density matrix
 
spin component  1
 
  0.4352  0.0853  0.0071 -0.0077  0.0000
  0.0853  0.5129 -0.0045 -0.0062  0.0077
  0.0071 -0.0045  0.4489  0.0492  0.0779
 -0.0077 -0.0062  0.0492  0.3780  0.0853
  0.0000  0.0077  0.0779  0.0853  0.4352
 
spin component  2
 
  0.9762 -0.0003 -0.0000  0.0002  0.0000
 -0.0003  0.9756  0.0001  0.0000 -0.0002
 -0.0000  0.0001  0.9757 -0.0002 -0.0003
  0.0002  0.0000 -0.0002  0.9761 -0.0003
  0.0000 -0.0002 -0.0003 -0.0003  0.9762
 
 occupancies and eigenvectors
 
  o =  0.3158  v = -0.0167 -0.0428 -0.0647 -0.7894  0.6087  0.0000  0.0000  0.0000  0.0000  0.0000      0.0000  0.0000  0.0000  0.0000  0.0000  0.0000  0.0000  0.0000  0.0000  0.0000
  o =  0.3693  v = -0.5606  0.3558  0.5909 -0.3135 -0.3342  0.0000  0.0000  0.0000  0.0000  0.0000      0.0000  0.0000  0.0000  0.0000  0.0000  0.0000  0.0000  0.0000  0.0000  0.0000
  o =  0.3891  v = -0.6270  0.4073 -0.5212  0.2720  0.3087  0.0000  0.0000  0.0000  0.0000  0.0000      0.0000  0.0000  0.0000  0.0000  0.0000  0.0000  0.0000  0.0000  0.0000  0.0000
  o =  0.5678  v =  0.0596  0.1023 -0.6079 -0.4520 -0.6420  0.0000  0.0000  0.0000  0.0000  0.0000      0.0000  0.0000  0.0000  0.0000  0.0000  0.0000  0.0000  0.0000  0.0000  0.0000
  o =  0.5683  v = -0.5373 -0.8338 -0.0737 -0.0158 -0.1017  0.0000  0.0000  0.0000  0.0000  0.0000      0.0000  0.0000  0.0000  0.0000  0.0000  0.0000  0.0000  0.0000  0.0000  0.0000
  o =  0.9754  v =  0.0000  0.0000  0.0000  0.0000  0.0000  0.3376  0.7586 -0.4650 -0.2930 -0.0927      0.0000  0.0000  0.0000  0.0000  0.0000  0.0000  0.0000  0.0000  0.0000  0.0000
  o =  0.9755  v =  0.0000  0.0000  0.0000  0.0000  0.0000  0.1471  0.4958  0.5991  0.3417  0.5068      0.0000  0.0000  0.0000  0.0000  0.0000  0.0000  0.0000  0.0000  0.0000  0.0000
  o =  0.9760  v =  0.0000  0.0000  0.0000  0.0000  0.0000  0.4724 -0.1356  0.5607 -0.6173 -0.2510      0.0000  0.0000  0.0000  0.0000  0.0000  0.0000  0.0000  0.0000  0.0000  0.0000
  o =  0.9764  v =  0.0000  0.0000  0.0000  0.0000  0.0000 -0.7744  0.3774  0.2939 -0.2873 -0.2982      0.0000  0.0000  0.0000  0.0000  0.0000  0.0000  0.0000  0.0000  0.0000  0.0000
  o =  0.9765  v =  0.0000  0.0000  0.0000  0.0000  0.0000  0.2039  0.1342  0.1551  0.5777 -0.7633      0.0000  0.0000  0.0000  0.0000  0.0000  0.0000  0.0000  0.0000  0.0000  0.0000
     EDDAV:  cpu time   79.8576: real time   80.0779
       DOS:  cpu time    0.0017: real time    0.0018
    --------------------------------------------
      LOOP:  cpu time   79.9739: real time   80.1980

 eigenvalue-minimisations  : 13824
 total energy-change (2. order) : 0.2529487E+04  (-0.1717936E+05)
 number of electron     300.0000119 magnetization       0.0000000
 augmentation part      300.0000119 magnetization       0.0000000

 Free energy of the ion-electron system (eV)
  ---------------------------------------------------
  alpha Z        PSCENC =       567.29340369
  Ewald energy   TEWEN  =     -9561.64587155
  -Hartree energ DENC   =     -7942.02487585
  -exchange      EXHF   =         0.00000000
  -V(xc)+E(xc)   XCENC  =      1180.52657751
  PAW double counting   =     12172.42893865   -12443.31030812
  entropy T*S    EENTRO =        -0.04970411
  eigenvalues    EBANDS =       643.37838876
  atomic energy  EATOM  =     17912.89047897
  Solvation  Ediel_sol  =         0.00000000
  ---------------------------------------------------
  free energy    TOTEN  =      2529.48702795 eV

  energy without entropy =     2529.53673206  energy(sigma->0) =     2529.51188000


--------------------------------------------------------------------------------------------------------




----------------------------------------- Iteration    1(   2)  ---------------------------------------


     EDDAV:  cpu time   97.5442: real time   99.1641
       DOS:  cpu time    0.0015: real time    0.0015
    --------------------------------------------
      LOOP:  cpu time   97.5463: real time   99.1664

 eigenvalue-minimisations  : 15600
 total energy-change (2. order) :-0.2706567E+04  (-0.2535257E+04)
 number of electron     300.0000119 magnetization       0.0000000
 augmentation part      300.0000119 magnetization       0.0000000

 Free energy of the ion-electron system (eV)
  ---------------------------------------------------
  alpha Z        PSCENC =       567.29340369
  Ewald energy   TEWEN  =     -9561.64587155
  -Hartree energ DENC   =     -7942.02487585
  -exchange      EXHF   =         0.00000000
  -V(xc)+E(xc)   XCENC  =      1180.52657751
  PAW double counting   =     12172.42893865   -12443.31030812
  entropy T*S    EENTRO =        -0.01510087
  eigenvalues    EBANDS =     -2063.22337509
  atomic energy  EATOM  =     17912.89047897
  Solvation  Ediel_sol  =         0.00000000
  ---------------------------------------------------
  free energy    TOTEN  =      -177.08013266 eV

  energy without entropy =     -177.06503179  energy(sigma->0) =     -177.07258223


--------------------------------------------------------------------------------------------------------




----------------------------------------- Iteration    1(   3)  ---------------------------------------


     EDDAV:  cpu time   96.1457: real time   96.4154
       DOS:  cpu time    0.0013: real time    0.0013
    CHARGE:  cpu time    2.7682: real time    2.7740
    MIXING:  cpu time    0.0012: real time    0.0014
    --------------------------------------------
      LOOP:  cpu time   98.9169: real time   99.1928

 eigenvalue-minimisations  : 17280
 total energy-change (2. order) :-0.2949887E+03  (-0.2908020E+03)
 number of electron     300.0000125 magnetization       0.0000000
 augmentation part       39.8787774 magnetization       0.0000000

 Broyden mixing:
  rms(total) = 0.50758E+00    rms(broyden)= 0.50754E+00
  rms(prec ) = 0.59495E+00
  weight for this iteration     100.00

 Free energy of the ion-electron system (eV)
  ---------------------------------------------------
  alpha Z        PSCENC =       567.29340369
  Ewald energy   TEWEN  =     -9561.64587155
  -Hartree energ DENC   =     -7942.02487585
  -exchange      EXHF   =         0.00000000
  -V(xc)+E(xc)   XCENC  =      1180.52657751
  PAW double counting   =     12172.42893865   -12443.31030812
  entropy T*S    EENTRO =        -0.00000005
  eigenvalues    EBANDS =     -2358.22721847
  atomic energy  EATOM  =     17912.89047897
  Solvation  Ediel_sol  =         0.00000000
  ---------------------------------------------------
  free energy    TOTEN  =      -472.06887522 eV

  energy without entropy =     -472.06887517  energy(sigma->0) =     -472.06887520


--------------------------------------------------------------------------------------------------------




----------------------------------------- Iteration    1(   4)  ---------------------------------------


    POTLOK:  cpu time    0.0888: real time    0.0888
    SETDIJ:  cpu time    0.0126: real time    0.0126
atom =   1  type =  1  l = 2
 
 onsite density matrix
 
spin component  1
 
  0.6555 -0.1187 -0.0556  0.2005 -0.2695
 -0.1187  0.4776 -0.3424 -0.0373  0.0318
 -0.0556 -0.3424  0.6590 -0.0237  0.0915
  0.2005 -0.0373 -0.0237  0.1791 -0.1860
 -0.2695  0.0318  0.0915 -0.1860  0.2846
 
spin component  2
 
  0.9726  0.0417  0.0074 -0.0083  0.0157
  0.0417  0.9528  0.0213  0.0009 -0.0029
  0.0074  0.0213  0.9629  0.0245 -0.0343
 -0.0083  0.0009  0.0245  0.9910  0.0161
  0.0157 -0.0029 -0.0343  0.0161  0.9767
 
 occupancies and eigenvectors
 
  o =  0.0358  v =  0.0021 -0.0453 -0.0863  0.7776  0.6212  0.0000  0.0000  0.0000  0.0000  0.0000      0.0000  0.0000  0.0000  0.0000  0.0000  0.0000  0.0000  0.0000  0.0000  0.0000
  o =  0.1806  v = -0.3469 -0.7474 -0.5447  0.0205 -0.1547  0.0000  0.0000  0.0000  0.0000  0.0000      0.0000  0.0000  0.0000  0.0000  0.0000  0.0000  0.0000  0.0000  0.0000  0.0000
  o =  0.1823  v =  0.4964 -0.2029 -0.2322 -0.5299  0.6146  0.0000  0.0000  0.0000  0.0000  0.0000      0.0000  0.0000  0.0000  0.0000  0.0000  0.0000  0.0000  0.0000  0.0000  0.0000
  o =  0.9162  v =  0.0000  0.0000  0.0000  0.0000  0.0000  0.6268 -0.7291 -0.0128  0.1343 -0.2396      0.0000  0.0000  0.0000  0.0000  0.0000  0.0000  0.0000  0.0000  0.0000  0.0000
  o =  0.9170  v =  0.0000  0.0000  0.0000  0.0000  0.0000 -0.0655 -0.3020  0.7202 -0.3533  0.5109      0.0000  0.0000  0.0000  0.0000  0.0000  0.0000  0.0000  0.0000  0.0000  0.0000
  o =  0.9271  v =  0.1384 -0.6243  0.7677  0.0419  0.0082  0.0000  0.0000  0.0000  0.0000  0.0000      0.0000  0.0000  0.0000  0.0000  0.0000  0.0000  0.0000  0.0000  0.0000  0.0000
  o =  0.9300  v = -0.7836  0.0920  0.2294 -0.3352  0.4609  0.0000  0.0000  0.0000  0.0000  0.0000      0.0000  0.0000  0.0000  0.0000  0.0000  0.0000  0.0000  0.0000  0.0000  0.0000
  o =  1.0013  v =  0.0000  0.0000  0.0000  0.0000  0.0000  0.0480  0.0791  0.0454 -0.8129 -0.5732      0.0000  0.0000  0.0000  0.0000  0.0000  0.0000  0.0000  0.0000  0.0000  0.0000
  o =  1.0064  v =  0.0000  0.0000  0.0000  0.0000  0.0000  0.6053  0.2861 -0.3766 -0.3400  0.5425      0.0000  0.0000  0.0000  0.0000  0.0000  0.0000  0.0000  0.0000  0.0000  0.0000
  o =  1.0151  v =  0.0000  0.0000  0.0000  0.0000  0.0000  0.4839  0.5378  0.5807  0.2842 -0.2423      0.0000  0.0000  0.0000  0.0000  0.0000  0.0000  0.0000  0.0000  0.0000  0.0000
atom =   2  type =  1  l = 2
 
 onsite density matrix
 
spin component  1
 
  0.9726 -0.0417  0.0074  0.0083  0.0157
 -0.0417  0.9528 -0.0213  0.0009  0.0029
  0.0074 -0.0213  0.9629 -0.0245 -0.0343
  0.0083  0.0009 -0.0245  0.9910 -0.0161
  0.0157  0.0029 -0.0343 -0.0161  0.9767
 
spin component  2
 
  0.6555  0.1187 -0.0556 -0.2005 -0.2695
  0.1187  0.4776  0.3424 -0.0373 -0.0318
 -0.0556  0.3424  0.6590  0.0237  0.0915
 -0.2005 -0.0373  0.0237  0.1791  0.1860
 -0.2695 -0.0318  0.0915  0.1860  0.2846
 
 occupancies and eigenvectors
 
  o =  0.0358  v =  0.0000  0.0000  0.0000  0.0000  0.0000 -0.0021 -0.0453  0.0863  0.7776 -0.6212      0.0000  0.0000  0.0000  0.0000  0.0000  0.0000  0.0000  0.0000  0.0000  0.0000
  o =  0.1806  v =  0.0000  0.0000  0.0000  0.0000  0.0000  0.3469 -0.7474  0.5447  0.0205  0.1547      0.0000  0.0000  0.0000  0.0000  0.0000  0.0000  0.0000  0.0000  0.0000  0.0000
  o =  0.1823  v =  0.0000  0.0000  0.0000  0.0000  0.0000 -0.4964 -0.2029  0.2322 -0.5299 -0.6146      0.0000  0.0000  0.0000  0.0000  0.0000  0.0000  0.0000  0.0000  0.0000  0.0000
  o =  0.9162  v =  0.6268  0.7291 -0.0128 -0.1343 -0.2396  0.0000  0.0000  0.0000  0.0000  0.0000      0.0000  0.0000  0.0000  0.0000  0.0000  0.0000  0.0000  0.0000  0.0000  0.0000
  o =  0.9170  v = -0.0655  0.3020  0.7202  0.3533  0.5109  0.0000  0.0000  0.0000  0.0000  0.0000      0.0000  0.0000  0.0000  0.0000  0.0000  0.0000  0.0000  0.0000  0.0000  0.0000
  o =  0.9271  v =  0.0000  0.0000  0.0000  0.0000  0.0000 -0.1384 -0.6243 -0.7677  0.0419 -0.0082      0.0000  0.0000  0.0000  0.0000  0.0000  0.0000  0.0000  0.0000  0.0000  0.0000
  o =  0.9300  v =  0.0000  0.0000  0.0000  0.0000  0.0000 -0.7836 -0.0920  0.2294  0.3352  0.4609      0.0000  0.0000  0.0000  0.0000  0.0000  0.0000  0.0000  0.0000  0.0000  0.0000
  o =  1.0013  v =  0.0480 -0.0791  0.0454  0.8129 -0.5732  0.0000  0.0000  0.0000  0.0000  0.0000      0.0000  0.0000  0.0000  0.0000  0.0000  0.0000  0.0000  0.0000  0.0000  0.0000
  o =  1.0064  v = -0.6053  0.2861  0.3766 -0.3400 -0.5425  0.0000  0.0000  0.0000  0.0000  0.0000      0.0000  0.0000  0.0000  0.0000  0.0000  0.0000  0.0000  0.0000  0.0000  0.0000
  o =  1.0151  v = -0.4839  0.5378 -0.5807  0.2842  0.2423  0.0000  0.0000  0.0000  0.0000  0.0000      0.0000  0.0000  0.0000  0.0000  0.0000  0.0000  0.0000  0.0000  0.0000  0.0000
atom =   3  type =  1  l = 2
 
 onsite density matrix
 
spin component  1
 
  0.9726  0.0417 -0.0074  0.0083 -0.0157
  0.0417  0.9528 -0.0213 -0.0009  0.0029
 -0.0074 -0.0213  0.9629  0.0245 -0.0343
  0.0083 -0.0009  0.0245  0.9910  0.0161
 -0.0157  0.0029 -0.0343  0.0161  0.9767
 
spin component  2
 
  0.6555 -0.1187  0.0556 -0.2005  0.2695
 -0.1187  0.4776  0.3424  0.0373 -0.0318
  0.0556  0.3424  0.6590 -0.0237  0.0915
 -0.2005  0.0373 -0.0237  0.1791 -0.1860
  0.2695 -0.0318  0.0915 -0.1860  0.2846
 
 occupancies and eigenvectors
 
  o =  0.0358  v =  0.0000  0.0000  0.0000  0.0000  0.0000 -0.0021  0.0453 -0.0863  0.7776  0.6212      0.0000  0.0000  0.0000  0.0000  0.0000  0.0000  0.0000  0.0000  0.0000  0.0000
  o =  0.1806  v =  0.0000  0.0000  0.0000  0.0000  0.0000 -0.3469 -0.7474  0.5447 -0.0205  0.1547      0.0000  0.0000  0.0000  0.0000  0.0000  0.0000  0.0000  0.0000  0.0000  0.0000
  o =  0.1823  v =  0.0000  0.0000  0.0000  0.0000  0.0000  0.4964 -0.2029  0.2322  0.5299 -0.6146      0.0000  0.0000  0.0000  0.0000  0.0000  0.0000  0.0000  0.0000  0.0000  0.0000
  o =  0.9162  v = -0.6268  0.7291 -0.0128  0.1343 -0.2396  0.0000  0.0000  0.0000  0.0000  0.0000      0.0000  0.0000  0.0000  0.0000  0.0000  0.0000  0.0000  0.0000  0.0000  0.0000
  o =  0.9170  v =  0.0655  0.3020  0.7202 -0.3533  0.5109  0.0000  0.0000  0.0000  0.0000  0.0000      0.0000  0.0000  0.0000  0.0000  0.0000  0.0000  0.0000  0.0000  0.0000  0.0000
  o =  0.9271  v =  0.0000  0.0000  0.0000  0.0000  0.0000  0.1384 -0.6243 -0.7677 -0.0419 -0.0082      0.0000  0.0000  0.0000  0.0000  0.0000  0.0000  0.0000  0.0000  0.0000  0.0000
  o =  0.9300  v =  0.0000  0.0000  0.0000  0.0000  0.0000 -0.7836  0.0920 -0.2294  0.3352 -0.4609      0.0000  0.0000  0.0000  0.0000  0.0000  0.0000  0.0000  0.0000  0.0000  0.0000
  o =  1.0013  v = -0.0480 -0.0791  0.0454 -0.8129 -0.5732  0.0000  0.0000  0.0000  0.0000  0.0000      0.0000  0.0000  0.0000  0.0000  0.0000  0.0000  0.0000  0.0000  0.0000  0.0000
  o =  1.0064  v = -0.6053 -0.2861 -0.3766 -0.3400  0.5425  0.0000  0.0000  0.0000  0.0000  0.0000      0.0000  0.0000  0.0000  0.0000  0.0000  0.0000  0.0000  0.0000  0.0000  0.0000
  o =  1.0151  v = -0.4839 -0.5378  0.5807  0.2842 -0.2423  0.0000  0.0000  0.0000  0.0000  0.0000      0.0000  0.0000  0.0000  0.0000  0.0000  0.0000  0.0000  0.0000  0.0000  0.0000
atom =   4  type =  1  l = 2
 
 onsite density matrix
 
spin component  1
 
  0.6555  0.1187  0.0556  0.2005  0.2695
  0.1187  0.4776 -0.3424  0.0373  0.0318
  0.0556 -0.3424  0.6590  0.0237  0.0915
  0.2005  0.0373  0.0237  0.1791  0.1860
  0.2695  0.0318  0.0915  0.1860  0.2846
 
spin component  2
 
  0.9726 -0.0417 -0.0074 -0.0083 -0.0157
 -0.0417  0.9528  0.0213 -0.0009 -0.0029
 -0.0074  0.0213  0.9629 -0.0245 -0.0343
 -0.0083 -0.0009 -0.0245  0.9910 -0.0161
 -0.0157 -0.0029 -0.0343 -0.0161  0.9767
 
 occupancies and eigenvectors
 
  o =  0.0358  v =  0.0021  0.0453  0.0863  0.7776 -0.6212  0.0000  0.0000  0.0000  0.0000  0.0000      0.0000  0.0000  0.0000  0.0000  0.0000  0.0000  0.0000  0.0000  0.0000  0.0000
  o =  0.1806  v =  0.3469 -0.7474 -0.5447 -0.0205 -0.1547  0.0000  0.0000  0.0000  0.0000  0.0000      0.0000  0.0000  0.0000  0.0000  0.0000  0.0000  0.0000  0.0000  0.0000  0.0000
  o =  0.1823  v = -0.4964 -0.2029 -0.2322  0.5299  0.6146  0.0000  0.0000  0.0000  0.0000  0.0000      0.0000  0.0000  0.0000  0.0000  0.0000  0.0000  0.0000  0.0000  0.0000  0.0000
  o =  0.9162  v =  0.0000  0.0000  0.0000  0.0000  0.0000 -0.6268 -0.7291 -0.0128 -0.1343 -0.2396      0.0000  0.0000  0.0000  0.0000  0.0000  0.0000  0.0000  0.0000  0.0000  0.0000
  o =  0.9170  v =  0.0000  0.0000  0.0000  0.0000  0.0000  0.0655 -0.3020  0.7202  0.3533  0.5109      0.0000  0.0000  0.0000  0.0000  0.0000  0.0000  0.0000  0.0000  0.0000  0.0000
  o =  0.9271  v = -0.1384 -0.6243  0.7677 -0.0419  0.0082  0.0000  0.0000  0.0000  0.0000  0.0000      0.0000  0.0000  0.0000  0.0000  0.0000  0.0000  0.0000  0.0000  0.0000  0.0000
  o =  0.9300  v = -0.7836 -0.0920 -0.2294 -0.3352 -0.4609  0.0000  0.0000  0.0000  0.0000  0.0000      0.0000  0.0000  0.0000  0.0000  0.0000  0.0000  0.0000  0.0000  0.0000  0.0000
  o =  1.0013  v =  0.0000  0.0000  0.0000  0.0000  0.0000 -0.0480  0.0791  0.0454  0.8129 -0.5732      0.0000  0.0000  0.0000  0.0000  0.0000  0.0000  0.0000  0.0000  0.0000  0.0000
  o =  1.0064  v =  0.0000  0.0000  0.0000  0.0000  0.0000  0.6053 -0.2861  0.3766 -0.3400 -0.5425      0.0000  0.0000  0.0000  0.0000  0.0000  0.0000  0.0000  0.0000  0.0000  0.0000
  o =  1.0151  v =  0.0000  0.0000  0.0000  0.0000  0.0000  0.4839 -0.5378 -0.5807  0.2842  0.2423      0.0000  0.0000  0.0000  0.0000  0.0000  0.0000  0.0000  0.0000  0.0000  0.0000
     EDDAV:  cpu time  100.6463: real time  100.9366
       DOS:  cpu time    0.0011: real time    0.0011
    CHARGE:  cpu time    2.7042: real time    2.7089
    MIXING:  cpu time    0.0011: real time    0.0012
    --------------------------------------------
      LOOP:  cpu time  103.4562: real time  103.7514

 eigenvalue-minimisations  : 18384
 total energy-change (2. order) :-0.1143235E+02  (-0.8947240E+01)
 number of electron     300.0000120 magnetization       0.0000000
 augmentation part       39.8622030 magnetization       0.0000000

 Broyden mixing:
  rms(total) = 0.41130E+00    rms(broyden)= 0.41126E+00
  rms(prec ) = 0.49432E+00
  weight for this iteration     100.00

 eigenvalues of (default mixing * dielectric matrix)
  average eigenvalue GAMMA=   0.5394
  0.5394

 Free energy of the ion-electron system (eV)
  ---------------------------------------------------
  alpha Z        PSCENC =       567.29340369
  Ewald energy   TEWEN  =     -9561.64587155
  -Hartree energ DENC   =     -7902.04087112
  -exchange      EXHF   =         0.00000000
  -V(xc)+E(xc)   XCENC  =      1177.97530978
  PAW double counting   =     12147.76483392   -12419.29517117
  entropy T*S    EENTRO =        -0.00000000
  eigenvalues    EBANDS =     -2406.44333509
  atomic energy  EATOM  =     17912.89047897
  Solvation  Ediel_sol  =         0.00000000
  ---------------------------------------------------
  free energy    TOTEN  =      -483.50122255 eV

  energy without entropy =     -483.50122255  energy(sigma->0) =     -483.50122255


--------------------------------------------------------------------------------------------------------




----------------------------------------- Iteration    1(   5)  ---------------------------------------


    POTLOK:  cpu time    0.0950: real time    0.0950
    SETDIJ:  cpu time    0.0143: real time    0.0143
atom =   1  type =  1  l = 2
 
 onsite density matrix
 
spin component  1
 
  0.6697 -0.0975 -0.0571  0.2198 -0.2914
 -0.0975  0.4377 -0.3713 -0.0435  0.0315
 -0.0571 -0.3713  0.6657 -0.0072  0.0699
  0.2198 -0.0435 -0.0072  0.1657 -0.1709
 -0.2914  0.0315  0.0699 -0.1709  0.2605
 
spin component  2
 
  0.9771  0.0198  0.0050 -0.0115  0.0175
  0.0198  0.9804  0.0225  0.0035 -0.0013
  0.0050  0.0225  0.9734  0.0120 -0.0131
 -0.0115  0.0035  0.0120  0.9822 -0.0065
  0.0175 -0.0013 -0.0131 -0.0065  0.9816
 
 occupancies and eigenvectors
 
  o =  0.0333  v =  0.0003  0.0410  0.0836 -0.7805 -0.6182  0.0000  0.0000  0.0000  0.0000  0.0000      0.0000  0.0000  0.0000  0.0000  0.0000  0.0000  0.0000  0.0000  0.0000  0.0000
  o =  0.1386  v = -0.5841 -0.2059 -0.1198  0.4670 -0.6197  0.0000  0.0000  0.0000  0.0000  0.0000      0.0000  0.0000  0.0000  0.0000  0.0000  0.0000  0.0000  0.0000  0.0000  0.0000
  o =  0.1405  v = -0.0011 -0.7648 -0.5681 -0.2443  0.1809  0.0000  0.0000  0.0000  0.0000  0.0000      0.0000  0.0000  0.0000  0.0000  0.0000  0.0000  0.0000  0.0000  0.0000  0.0000
  o =  0.9423  v =  0.1051 -0.6049  0.7872  0.0578 -0.0067  0.0000  0.0000  0.0000  0.0000  0.0000      0.0000  0.0000  0.0000  0.0000  0.0000  0.0000  0.0000  0.0000  0.0000  0.0000
  o =  0.9447  v = -0.8049  0.0715  0.1905 -0.3313  0.4484  0.0000  0.0000  0.0000  0.0000  0.0000      0.0000  0.0000  0.0000  0.0000  0.0000  0.0000  0.0000  0.0000  0.0000  0.0000
  o =  0.9500  v =  0.0000  0.0000  0.0000  0.0000  0.0000  0.5909 -0.6832  0.3754  0.1083 -0.1772      0.0000  0.0000  0.0000  0.0000  0.0000  0.0000  0.0000  0.0000  0.0000  0.0000
  o =  0.9504  v =  0.0000  0.0000  0.0000  0.0000  0.0000 -0.4381 -0.1700  0.6867 -0.3040  0.4638      0.0000  0.0000  0.0000  0.0000  0.0000  0.0000  0.0000  0.0000  0.0000  0.0000
[...]
   -.317E+02 -.356E+02 0.236E+02   0.350E+02 0.394E+02 -.266E+02   -.332E+01 -.375E+01 0.305E+01   0.439E-03 0.426E-03 -.385E-03
   0.317E+02 0.356E+02 0.236E+02   -.350E+02 -.394E+02 -.266E+02   0.332E+01 0.375E+01 0.305E+01   -.439E-03 -.426E-03 -.383E-03
   0.265E+01 0.271E+02 0.315E+02   -.187E+01 -.320E+02 -.364E+02   -.783E+00 0.492E+01 0.486E+01   0.205E-03 -.574E-03 -.626E-03
   -.265E+01 -.271E+02 0.315E+02   0.187E+01 0.320E+02 -.364E+02   0.783E+00 -.492E+01 0.486E+01   -.205E-03 0.573E-03 -.626E-03
   0.265E+01 -.271E+02 0.315E+02   -.187E+01 0.320E+02 -.364E+02   -.783E+00 -.492E+01 0.486E+01   0.205E-03 0.574E-03 -.626E-03
   -.265E+01 0.271E+02 0.315E+02   0.187E+01 -.320E+02 -.364E+02   0.783E+00 0.492E+01 0.486E+01   -.205E-03 -.573E-03 -.626E-03
   -.117E+02 -.312E+02 0.260E+02   0.123E+02 0.374E+02 -.288E+02   -.604E+00 -.619E+01 0.283E+01   0.500E-03 0.592E-03 -.616E-03
   0.117E+02 0.312E+02 0.260E+02   -.123E+02 -.374E+02 -.288E+02   0.604E+00 0.619E+01 0.283E+01   -.500E-03 -.592E-03 -.617E-03
   -.117E+02 0.312E+02 0.260E+02   0.123E+02 -.374E+02 -.288E+02   -.604E+00 0.619E+01 0.283E+01   0.500E-03 -.592E-03 -.616E-03
   0.117E+02 -.312E+02 0.260E+02   -.123E+02 0.374E+02 -.288E+02   0.604E+00 -.619E+01 0.283E+01   -.500E-03 0.592E-03 -.617E-03
   -.403E+02 -.288E+00 -.220E+02   0.452E+02 -.640E+00 0.267E+02   -.491E+01 0.921E+00 -.473E+01   0.920E-03 0.575E-05 0.434E-03
   0.403E+02 0.288E+00 -.220E+02   -.452E+02 0.640E+00 0.267E+02   0.491E+01 -.921E+00 -.473E+01   -.920E-03 -.605E-05 0.433E-03
   -.403E+02 0.288E+00 -.220E+02   0.452E+02 0.640E+00 0.267E+02   -.491E+01 -.921E+00 -.473E+01   0.920E-03 -.570E-05 0.434E-03
   0.403E+02 -.288E+00 -.220E+02   -.452E+02 -.640E+00 0.267E+02   0.491E+01 0.921E+00 -.473E+01   -.920E-03 0.610E-05 0.433E-03
   0.137E+02 0.357E+02 -.326E+02   -.133E+02 -.412E+02 0.374E+02   -.372E+00 0.551E+01 -.476E+01   -.208E-03 -.773E-03 0.904E-03
   -.137E+02 -.357E+02 -.326E+02   0.133E+02 0.412E+02 0.374E+02   0.372E+00 -.551E+01 -.476E+01   0.208E-03 0.773E-03 0.902E-03
   0.137E+02 -.357E+02 -.326E+02   -.133E+02 0.412E+02 0.374E+02   -.372E+00 -.551E+01 -.476E+01   -.208E-03 0.773E-03 0.904E-03
   -.137E+02 0.357E+02 -.326E+02   0.133E+02 -.412E+02 0.374E+02   0.372E+00 0.551E+01 -.476E+01   0.208E-03 -.773E-03 0.902E-03
   0.197E+02 -.399E+02 -.306E+02   -.205E+02 0.461E+02 0.343E+02   0.802E+00 -.625E+01 -.368E+01   -.309E-03 0.738E-03 0.876E-03
   -.197E+02 0.399E+02 -.306E+02   0.205E+02 -.461E+02 0.343E+02   -.802E+00 0.625E+01 -.368E+01   0.309E-03 -.739E-03 0.874E-03
   0.197E+02 0.399E+02 -.306E+02   -.205E+02 -.461E+02 0.343E+02   0.802E+00 0.625E+01 -.368E+01   -.309E-03 -.738E-03 0.876E-03
   -.197E+02 -.399E+02 -.306E+02   0.205E+02 0.461E+02 0.343E+02   -.802E+00 -.625E+01 -.368E+01   0.309E-03 0.738E-03 0.874E-03
   0.131E+03 0.170E+02 0.386E+01   -.159E+03 -.215E+02 -.207E+02   0.276E+02 0.444E+01 0.169E+02   -.268E-02 -.391E-03 0.385E-02
   -.131E+03 -.170E+02 0.386E+01   0.159E+03 0.215E+02 -.207E+02   -.276E+02 -.444E+01 0.169E+02   0.268E-02 0.388E-03 0.384E-02
   0.131E+03 -.170E+02 0.386E+01   -.159E+03 0.215E+02 -.207E+02   0.276E+02 -.444E+01 0.169E+02   -.268E-02 0.391E-03 0.385E-02
   -.131E+03 0.170E+02 0.386E+01   0.159E+03 -.215E+02 -.207E+02   -.276E+02 0.444E+01 0.169E+02   0.268E-02 -.389E-03 0.384E-02
   -.517E+02 -.150E+01 0.438E+02   0.561E+02 0.172E+01 -.463E+02   -.444E+01 -.226E+00 0.249E+01   0.468E-02 0.158E-04 -.143E-02
   0.517E+02 0.150E+01 0.438E+02   -.561E+02 -.172E+01 -.463E+02   0.444E+01 0.226E+00 0.249E+01   -.468E-02 -.182E-04 -.143E-02
   -.517E+02 0.150E+01 0.438E+02   0.561E+02 -.172E+01 -.463E+02   -.444E+01 0.226E+00 0.249E+01   0.468E-02 -.160E-04 -.143E-02
   0.517E+02 -.150E+01 0.438E+02   -.561E+02 0.172E+01 -.463E+02   0.444E+01 -.226E+00 0.249E+01   -.468E-02 0.182E-04 -.143E-02
 -----------------------------------------------------------------------------------------------
   -.198E-02 0.726E-03 -.873E+02   -.327E-12 0.682E-13 0.497E-12   0.231E-13 -.116E-13 0.873E+02   0.638E-05 0.576E-05 0.103E-01
 
 
 POSITION                                       TOTAL-FORCE (eV/Angst)
 -----------------------------------------------------------------------------------
      4.65697      3.86621      5.87238         0.000818      0.000293      0.000723
      3.99083      3.86561      0.14462        -0.000818     -0.000293      0.000723
      0.33307      7.73153      5.87238         0.000818     -0.000293      0.000723
      8.31473      0.00030      0.14462        -0.000818      0.000293      0.000723
      4.85208      4.99806      7.65395        -0.002038      0.001303      0.000590
      3.79572      2.73377      1.92619         0.002038     -0.001303      0.000590
      0.52818      6.59968      7.65395        -0.002038     -0.001303      0.000590
      8.11963      1.13214      1.92619         0.002038      0.001303      0.000590
      4.35837      4.95369      9.83697         0.000451     -0.000185     -0.003371
      4.28944      2.77813      4.10921        -0.000451      0.000185     -0.003371
      0.03446      6.64405      9.83697         0.000451      0.000185     -0.003371
      8.61334      1.08778      4.10921        -0.000451     -0.000185     -0.003371
      3.85635      5.63567      5.05250        -0.003372      0.002683     -0.000692
      4.79145      2.09616     10.78026         0.003372     -0.002683     -0.000692
      8.18026      5.96207      5.05250        -0.003372     -0.002683     -0.000692
      0.46755      1.76976     10.78026         0.003372      0.002683     -0.000692
      2.18377      7.12559      5.03206         0.003772     -0.002712     -0.000043
      6.46404      0.60624     10.75982        -0.003772      0.002712     -0.000043
      6.50767      4.47215      5.03206         0.003772      0.002712     -0.000043
      2.14013      3.25967     10.75982        -0.003772     -0.002712     -0.000043
      2.78965      3.29014      6.65114        -0.006586      0.001334     -0.000397
      5.85816      4.44169      0.92338         0.006586     -0.001334     -0.000397
      7.11355      0.57578      6.65114        -0.006586     -0.001334     -0.000397
      1.53425      7.15605      0.92338         0.006586      0.001334     -0.000397
      1.12795      1.79448      6.66466         0.002052      0.002851      0.000303
      7.51986      5.93735      0.93690        -0.002052     -0.002851      0.000303
      5.45185      2.07143      6.66466         0.002052     -0.002851      0.000303
      3.19595      5.66040      0.93690        -0.002052      0.002851      0.000303
      4.61028      4.37150      8.73910        -0.000186     -0.002083      0.003504
      4.03753      3.36033      3.01135         0.000186      0.002083      0.003504
      0.28638      7.22624      8.73910        -0.000186      0.002083      0.003504
      8.36143      0.50559      3.01135         0.000186     -0.002083      0.003504
      2.78375      6.11571      5.52896         0.000708      0.002597     -0.002066
      5.86405      1.61612     11.25672        -0.000708     -0.002597     -0.002066
      7.10766      5.48203      5.52896         0.000708     -0.002597     -0.002066
      1.54015      2.24979     11.25672        -0.000708      0.002597     -0.002066
      2.31073      2.15817      6.34839        -0.001367     -0.001188      0.000371
      6.33708      5.57366      0.62063         0.001367      0.001188      0.000371
      6.63463      1.70775      6.34839        -0.001367      0.001188      0.000371
      2.01317      6.02408      0.62063         0.001367     -0.001188      0.000371
      4.62431      3.26984      8.71312        -0.000276      0.000544     -0.002163
      4.02350      4.46199      2.98536         0.000276     -0.000544     -0.002163
      0.30041      0.59607      8.71312        -0.000276     -0.000544     -0.002163
      8.34740      7.13575      2.98536         0.000276      0.000544     -0.002163
      2.34243      5.63716      6.41879        -0.001568     -0.000095      0.001075
      6.30537      2.09467      0.69103         0.001568      0.000095      0.001075
      6.66634      5.96058      6.41879        -0.001568      0.000095      0.001075
      1.98147      1.77124      0.69103         0.001568     -0.000095      0.001075
      2.93478      1.45073      5.77639        -0.001703     -0.002563     -0.001851
      5.71303      6.28110      0.04863         0.001703      0.002563     -0.001851
      7.25868      2.41518      5.77639        -0.001703      0.002563     -0.001851
      1.38913      5.31665      0.04863         0.001703     -0.002563     -0.001851
      0.63722      3.16580      7.75549        -0.002668      0.000257      0.000593
      8.01059      4.56602      2.02773         0.002668     -0.000257      0.000593
      4.96112      0.70011      7.75549        -0.002668     -0.000257      0.000593
      3.68668      7.03172      2.02773         0.002668      0.000257      0.000593
      0.61841      4.85930      8.05069        -0.002186     -0.000043      0.000657
      8.02939      2.87252      2.32293         0.002186      0.000043      0.000657
      4.94232      6.73844      8.05069        -0.002186      0.000043      0.000657
      3.70549      0.99339      2.32293         0.002186     -0.000043      0.000657
      1.27809      3.76980      9.20599        -0.001765      0.001102      0.000633
      7.36971      3.96203      3.47823         0.001765     -0.001102      0.000633
      5.60200      0.09612      9.20599        -0.001765     -0.001102      0.000633
      3.04581      7.63571      3.47823         0.001765      0.001102      0.000633
      7.92528      3.06098      9.75926        -0.002263     -0.000005      0.001738
      0.72252      4.67084      4.03150         0.002263      0.000005      0.001738
      3.60138      0.80493      9.75926        -0.002263      0.000005      0.001738
      5.04643      6.92690      4.03150         0.002263     -0.000005      0.001738
      7.76352      4.70032      9.60945        -0.001493      0.001303      0.002340
      0.88429      3.03151      3.88169         0.001493     -0.001303      0.002340
      3.43961      6.89742      9.60945        -0.001493     -0.001303      0.002340
      5.20819      0.83441      3.88169         0.001493      0.001303      0.002340
      7.84992      3.82613      9.07407        -0.000454      0.000325     -0.000684
      0.79788      3.90570      3.34631         0.000454     -0.000325     -0.000684
      3.52602      0.03979      9.07407        -0.000454     -0.000325     -0.000684
      5.12179      7.69204      3.34631         0.000454      0.000325     -0.000684
      0.52542      3.90702      8.48628         0.001176      0.001564     -0.001260
      8.12238      3.82481      2.75852        -0.001176     -0.001564     -0.001260
      4.84933      7.69072      8.48628         0.001176     -0.001564     -0.001260
      3.79848      0.04110      2.75852        -0.001176      0.001564     -0.001260
 -----------------------------------------------------------------------------------
    total drift:                               -0.001973      0.000732      0.012305


--------------------------------------------------------------------------------------------------------



  FREE ENERGIE OF THE ION-ELECTRON SYSTEM (eV)
  ---------------------------------------------------
  free  energy   TOTEN  =      -488.66540402 eV

  energy  without entropy=     -488.66540402  energy(sigma->0) =     -488.66540402
 


--------------------------------------------------------------------------------------------------------


    POTLOK:  cpu time    0.1015: real time    0.1016


--------------------------------------------------------------------------------------------------------


     LOOP+:  cpu time 2546.8366: real time 2556.3422
    4ORBIT:  cpu time    0.0000: real time    0.0000
 


 total charge     
 
# of ion     s       p       d       tot
----------------------------------------
  1        0.280   0.346   7.090   7.717
  2        0.280   0.346   7.090   7.717
  3        0.280   0.346   7.090   7.716
  4        0.280   0.346   7.090   7.717
  5        1.568   3.571   0.000   5.140
  6        1.568   3.571   0.000   5.140
  7        1.568   3.571   0.000   5.140
  8        1.568   3.571   0.000   5.140
  9        1.569   3.571   0.000   5.141
 10        1.569   3.571   0.000   5.141
 11        1.569   3.571   0.000   5.141
 12        1.569   3.571   0.000   5.141
 13        1.570   3.572   0.000   5.142
 14        1.570   3.572   0.000   5.142
 15        1.570   3.572   0.000   5.142
 16        1.570   3.572   0.000   5.142
 17        1.569   3.567   0.000   5.136
 18        1.569   3.567   0.000   5.136
 19        1.569   3.568   0.000   5.136
 20        1.569   3.568   0.000   5.136
 21        1.571   3.571   0.000   5.142
 22        1.571   3.571   0.000   5.142
 23        1.571   3.571   0.000   5.141
 24        1.571   3.571   0.000   5.141
 25        1.568   3.568   0.000   5.136
 26        1.568   3.568   0.000   5.136
 27        1.568   3.567   0.000   5.136
 28        1.568   3.567   0.000   5.136
 29        0.877   1.704   0.000   2.580
 30        0.877   1.704   0.000   2.580
 31        0.877   1.704   0.000   2.580
 32        0.877   1.704   0.000   2.580
 33        0.877   1.708   0.000   2.585
 34        0.877   1.708   0.000   2.585
 35        0.877   1.708   0.000   2.585
 36        0.877   1.708   0.000   2.585
 37        0.877   1.708   0.000   2.585
 38        0.877   1.708   0.000   2.585
 39        0.877   1.708   0.000   2.585
 40        0.877   1.708   0.000   2.585
 41        0.641   0.047   0.000   0.688
 42        0.641   0.047   0.000   0.688
 43        0.641   0.047   0.000   0.688
 44        0.641   0.047   0.000   0.688
 45        0.640   0.047   0.000   0.687
 46        0.640   0.047   0.000   0.687
 47        0.640   0.047   0.000   0.687
 48        0.640   0.047   0.000   0.687
 49        0.640   0.047   0.000   0.687
 50        0.640   0.047   0.000   0.687
 51        0.640   0.047   0.000   0.687
 52        0.640   0.047   0.000   0.687
 53        0.593   0.087   0.000   0.680
 54        0.593   0.087   0.000   0.680
 55        0.593   0.087   0.000   0.680
 56        0.593   0.087   0.000   0.680
 57        0.586   0.087   0.000   0.673
 58        0.586   0.087   0.000   0.673
 59        0.586   0.087   0.000   0.673
 60        0.586   0.087   0.000   0.673
 61        0.593   0.084   0.000   0.677
 62        0.593   0.084   0.000   0.677
 63        0.593   0.084   0.000   0.677
 64        0.593   0.084   0.000   0.677
 65        0.628   0.087   0.000   0.715
 66        0.628   0.087   0.000   0.715
 67        0.628   0.087   0.000   0.715
 68        0.628   0.087   0.000   0.715
 69        0.632   0.085   0.000   0.717
 70        0.632   0.085   0.000   0.717
 71        0.632   0.085   0.000   0.717
 72        0.632   0.085   0.000   0.717
 73        1.235   2.618   0.000   3.853
 74        1.235   2.618   0.000   3.853
 75        1.235   2.618   0.000   3.853
 76        1.235   2.618   0.000   3.853
 77        1.218   2.733   0.000   3.950
 78        1.218   2.733   0.000   3.950
 79        1.218   2.733   0.000   3.950
 80        1.218   2.733   0.000   3.950
------------------------------------------------
tot       78.929 131.230  28.360 238.519
 


 magnetization (x)
 
# of ion     s       p       d       tot
----------------------------------------
  1       -0.010  -0.007  -2.670  -2.687
  2        0.010   0.007   2.670   2.687
  3        0.010   0.007   2.670   2.687
  4       -0.010  -0.007  -2.670  -2.687
  5       -0.004  -0.027   0.000  -0.031
  6        0.004   0.027   0.000   0.031
  7        0.004   0.027   0.000   0.031
  8       -0.004  -0.027   0.000  -0.031
  9        0.004   0.028   0.000   0.032
 10       -0.004  -0.028   0.000  -0.032
 11       -0.004  -0.028   0.000  -0.032
 12        0.004   0.028   0.000   0.032
 13       -0.004  -0.030   0.000  -0.034
 14        0.004   0.030   0.000   0.034
 15        0.004   0.030   0.000   0.034
 16       -0.004  -0.030   0.000  -0.034
 17        0.004   0.027   0.000   0.030
 18       -0.004  -0.027   0.000  -0.030
 19       -0.004  -0.027   0.000  -0.030
 20        0.004   0.027   0.000   0.030
 21       -0.004  -0.032   0.000  -0.035
 22        0.004   0.032   0.000   0.035
 23        0.004   0.031   0.000   0.035
 24       -0.004  -0.031   0.000  -0.035
 25        0.004   0.026   0.000   0.030
 26       -0.004  -0.026   0.000  -0.030
 27       -0.004  -0.026   0.000  -0.030
 28        0.004   0.026   0.000   0.030
 29        0.000  -0.001   0.000  -0.001
 30       -0.000   0.001   0.000   0.001
 31       -0.000   0.001   0.000   0.001
 32        0.000  -0.001   0.000  -0.001
 33       -0.000   0.000   0.000   0.000
 34        0.000  -0.000   0.000  -0.000
 35        0.000  -0.000   0.000  -0.000
 36       -0.000   0.000   0.000   0.000
 37        0.000   0.000   0.000   0.001
 38       -0.000  -0.000   0.000  -0.001
 39       -0.000  -0.000   0.000  -0.001
 40        0.000   0.000   0.000   0.001
 41        0.000  -0.000   0.000   0.000
 42       -0.000   0.000   0.000  -0.000
 43       -0.000   0.000   0.000  -0.000
 44        0.000  -0.000   0.000   0.000
 45       -0.000  -0.000   0.000  -0.000
 46        0.000   0.000   0.000   0.000
 47        0.000   0.000   0.000   0.000
 48       -0.000  -0.000   0.000  -0.000
 49       -0.000   0.000   0.000  -0.000
 50        0.000  -0.000   0.000   0.000
 51        0.000  -0.000   0.000   0.000
 52       -0.000   0.000   0.000  -0.000
 53        0.000   0.000   0.000   0.000
 54       -0.000  -0.000   0.000  -0.000
 55       -0.000  -0.000   0.000  -0.000
 56        0.000   0.000   0.000   0.000
 57        0.000   0.000   0.000   0.000
 58       -0.000  -0.000   0.000  -0.000
 59       -0.000  -0.000   0.000  -0.000
 60        0.000   0.000   0.000   0.000
 61       -0.000   0.000   0.000   0.000
 62        0.000  -0.000   0.000  -0.000
 63        0.000  -0.000   0.000  -0.000
 64       -0.000   0.000   0.000   0.000
 65        0.000  -0.000   0.000  -0.000
 66       -0.000   0.000   0.000   0.000
 67       -0.000   0.000   0.000   0.000
 68        0.000  -0.000   0.000  -0.000
 69        0.000  -0.000   0.000   0.000
 70       -0.000   0.000   0.000  -0.000
 71       -0.000   0.000   0.000  -0.000
 72        0.000  -0.000   0.000   0.000
 73       -0.000  -0.000   0.000  -0.000
 74        0.000   0.000   0.000   0.000
 75        0.000   0.000   0.000   0.000
 76       -0.000  -0.000   0.000  -0.000
 77        0.000   0.001   0.000   0.001
 78       -0.000  -0.001   0.000  -0.001
 79       -0.000  -0.001   0.000  -0.001
 80        0.000   0.001   0.000   0.001
------------------------------------------------
tot        0.000  -0.000   0.000  -0.000
 

 total amount of memory used by VASP on root node   618127. kBytes
========================================================================

   base      :      30000. kBytes
   nonl-proj :     459325. kBytes
   fftplans  :       3190. kBytes
   grid      :      47369. kBytes
   one-center:       2488. kBytes
   wavefun   :      75755. kBytes
 
  
  
 General timing and accounting informations for this job:
 ========================================================
  
                  Total CPU time used (sec):     2579.313
                            User time (sec):     2566.976
                          System time (sec):       12.337
                         Elapsed time (sec):     2589.513
  
                   Maximum memory used (kb):      799004.
                   Average memory used (kb):           0.
  
                          Minor page faults:      3184109
                          Major page faults:            0
                 Voluntary context switches:       286502
