 vasp.5.4.1 24Jun15 (build Aug 03 2015 13:31:17) complex                        
  
 executed on      LinuxIFC_2015xe date 2021.07.26  23:24:46
 running on   48 total cores
 distrk:  each k-point on   48 cores,    1 groups
 distr:  one band on NCORES_PER_BAND=   1 cores,   48 groups


--------------------------------------------------------------------------------------------------------


 INCAR:
 POTCAR:    PAW_PBE Mg 13Apr2007                  
 POTCAR:   PAW_PBE O 08Apr2002                    
 POTCAR:   PAW_PBE C 08Apr2002                    
 POTCAR:   PAW_PBE H 15Jun2001                    
 POTCAR:   PAW_PBE N 08Apr2002                    

 ----------------------------------------------------------------------------- 
|                                                                             |
|           W    W    AA    RRRRR   N    N  II  N    N   GGGG   !!!           |
|           W    W   A  A   R    R  NN   N  II  NN   N  G    G  !!!           |
|           W    W  A    A  R    R  N N  N  II  N N  N  G       !!!           |
|           W WW W  AAAAAA  RRRRR   N  N N  II  N  N N  G  GGG   !            |
|           WW  WW  A    A  R   R   N   NN  II  N   NN  G    G                |
|           W    W  A    A  R    R  N    N  II  N    N   GGGG   !!!           |
|                                                                             |
|      For optimal performance we recommend to set                            |
|        NCORE= 4 - approx SQRT( number of cores)                             |
|      NCORE specifies how many cores store one orbital (NPAR=cpu/NCORE).     |
|      This setting can  greatly improve the performance of VASP for DFT.     |
|      The default, NPAR=number of cores might be grossly inefficient         |
|      on modern multi-core architectures or massively parallel machines.     |
|      Do your own testing !!!!                                               |
|      Unfortunately you need to use the default for GW and RPA calculations. |
|      (for HF NCORE is supported but not extensively tested yet)             |
|                                                                             |
 ----------------------------------------------------------------------------- 

 POTCAR:    PAW_PBE Mg 13Apr2007                  
   VRHFIN =Mg: s2p0                                                             
   LEXCH  = PE                                                                  
   EATOM  =    23.0369 eV,    1.6932 Ry                                         
                                                                                
   TITEL  = PAW_PBE Mg 13Apr2007                                                
   LULTRA =        F    use ultrasoft PP ?                                      
   IUNSCR =        1    unscreen: 0-lin 1-nonlin 2-no                           
   RPACOR =    1.500    partial core radius                                     
   POMASS =   24.305; ZVAL   =    2.000    mass and valenz                      
   RCORE  =    2.000    outmost cutoff radius                                   
   RWIGS  =    2.880; RWIGS  =    1.524    wigner-seitz radius (au A)           
   ENMAX  =  126.143; ENMIN  =   94.607 eV                                      
   RCLOC  =    1.506    cutoff for local pot                                    
   LCOR   =        T    correct aug charges                                     
   LPAW   =        T    paw PP                                                  
   EAUG   =  454.734                                                            
   DEXC   =    0.000                                                            
   RMAX   =    2.045    core radius for proj-oper                               
   RAUG   =    1.300    factor for augmentation sphere                          
   RDEP   =    2.025    radius for radial grids                                 
   RDEPT  =    1.942    core radius for aug-charge                              
                                                                                
   Atomic configuration                                                         
    6 entries                                                                   
     n  l   j            E        occ.                                          
     1  0  0.50     -1259.6230   2.0000                                         
     2  0  0.50       -79.8442   2.0000                                         
     2  1  1.50       -46.6121   6.0000                                         
     3  0  0.50        -4.7055   2.0000                                         
     3  1  0.50        -1.3660   0.0000                                         
     3  2  1.50        -1.3606   0.0000                                         
   Description                                                                  
     l       E           TYP  RCUT    TYP  RCUT                                 
     0     -4.7054661     23  2.000                                             
     0     27.2116520     23  2.000                                             
     1      1.3605826     23  2.000                                             
     1     27.2116520     23  2.000                                             
     2     -1.3605826     23  2.000                                             
  local pseudopotential read in
  partial core-charges read in
  partial kinetic energy density read in
  atomic valenz-charges read in
  non local Contribution for L=           0  read in
    real space projection operators read in
  non local Contribution for L=           0  read in
    real space projection operators read in
  non local Contribution for L=           1  read in
    real space projection operators read in
  non local Contribution for L=           1  read in
    real space projection operators read in
  non local Contribution for L=           2  read in
    real space projection operators read in
    PAW grid and wavefunctions read in
 
   number of l-projection  operators is LMAX  =           5
   number of lm-projection operators is LMMAX =          13
 
 POTCAR:   PAW_PBE O 08Apr2002                    
   VRHFIN =O: s2p4                                                              
   LEXCH  = PE                                                                  
   EATOM  =   432.3788 eV,   31.7789 Ry                                         
                                                                                
   TITEL  = PAW_PBE O 08Apr2002                                                 
   LULTRA =        F    use ultrasoft PP ?                                      
   IUNSCR =        0    unscreen: 0-lin 1-nonlin 2-no                           
   RPACOR =     .000    partial core radius                                     
   POMASS =   16.000; ZVAL   =    6.000    mass and valenz                      
   RCORE  =    1.520    outmost cutoff radius                                   
   RWIGS  =    1.550; RWIGS  =     .820    wigner-seitz radius (au A)           
   ENMAX  =  400.000; ENMIN  =  300.000 eV                                      
   ICORE  =        2    local potential                                         
   LCOR   =        T    correct aug charges                                     
   LPAW   =        T    paw PP                                                  
   EAUG   =  605.392                                                            
   DEXC   =     .000                                                            
   RMAX   =    2.264    core radius for proj-oper                               
   RAUG   =    1.300    factor for augmentation sphere                          
   RDEP   =    1.550    radius for radial grids                                 
   QCUT   =   -5.520; QGAM   =   11.041    optimization parameters              
                                                                                
   Description                                                                  
     l     E      TYP  RCUT    TYP  RCUT                                        
     0   .000     23  1.200                                                     
     0  -.700     23  1.200                                                     
     1   .000     23  1.520                                                     
     1   .600     23  1.520                                                     
     2   .000      7  1.500                                                     
  local pseudopotential read in
  atomic valenz-charges read in
  non local Contribution for L=           0  read in
    real space projection operators read in
  non local Contribution for L=           0  read in
    real space projection operators read in
  non local Contribution for L=           1  read in
    real space projection operators read in
  non local Contribution for L=           1  read in
    real space projection operators read in
    PAW grid and wavefunctions read in
 
   number of l-projection  operators is LMAX  =           4
   number of lm-projection operators is LMMAX =           8
 
 POTCAR:   PAW_PBE C 08Apr2002                    
   VRHFIN =C: s2p2                                                              
   LEXCH  = PE                                                                  
   EATOM  =   147.1560 eV,   10.8157 Ry                                         
                                                                                
   TITEL  = PAW_PBE C 08Apr2002                                                 
   LULTRA =        F    use ultrasoft PP ?                                      
   IUNSCR =        0    unscreen: 0-lin 1-nonlin 2-no                           
   RPACOR =     .000    partial core radius                                     
   POMASS =   12.011; ZVAL   =    4.000    mass and valenz                      
   RCORE  =    1.500    outmost cutoff radius                                   
   RWIGS  =    1.630; RWIGS  =     .863    wigner-seitz radius (au A)           
   ENMAX  =  400.000; ENMIN  =  300.000 eV                                      
   ICORE  =        2    local potential                                         
   LCOR   =        T    correct aug charges                                     
   LPAW   =        T    paw PP                                                  
   EAUG   =  644.873                                                            
   DEXC   =     .000                                                            
   RMAX   =    2.266    core radius for proj-oper                               
   RAUG   =    1.300    factor for augmentation sphere                          
   RDEP   =    1.501    radius for radial grids                                 
   RDEPT  =    1.300    core radius for aug-charge                              
   QCUT   =   -5.516; QGAM   =   11.032    optimization parameters              
                                                                                
   Description                                                                  
     l     E      TYP  RCUT    TYP  RCUT                                        
     0   .000     23  1.200                                                     
     0   .000     23  1.200                                                     
     1   .000     23  1.500                                                     
     1  2.500     23  1.500                                                     
     2   .000      7  1.500                                                     
  local pseudopotential read in
  atomic valenz-charges read in
  non local Contribution for L=           0  read in
    real space projection operators read in
  non local Contribution for L=           0  read in
    real space projection operators read in
  non local Contribution for L=           1  read in
    real space projection operators read in
  non local Contribution for L=           1  read in
    real space projection operators read in
    PAW grid and wavefunctions read in
 
   number of l-projection  operators is LMAX  =           4
   number of lm-projection operators is LMMAX =           8
 
 POTCAR:   PAW_PBE H 15Jun2001                    
   VRHFIN =H: ultrasoft test                                                    
   LEXCH  = PE                                                                  
   EATOM  =    12.4884 eV,     .9179 Ry                                         
                                                                                
   TITEL  = PAW_PBE H 15Jun2001                                                 
   LULTRA =        F    use ultrasoft PP ?                                      
   IUNSCR =        0    unscreen: 0-lin 1-nonlin 2-no                           
   RPACOR =     .000    partial core radius                                     
   POMASS =    1.000; ZVAL   =    1.000    mass and valenz                      
   RCORE  =    1.100    outmost cutoff radius                                   
   RWIGS  =     .700; RWIGS  =     .370    wigner-seitz radius (au A)           
   ENMAX  =  250.000; ENMIN  =  200.000 eV                                      
   RCLOC  =     .701    cutoff for local pot                                    
   LCOR   =        T    correct aug charges                                     
   LPAW   =        T    paw PP                                                  
   EAUG   =  400.000                                                            
   RMAX   =    2.174    core radius for proj-oper                               
   RAUG   =    1.200    factor for augmentation sphere                          
   RDEP   =    1.112    radius for radial grids                                 
   QCUT   =   -5.749; QGAM   =   11.498    optimization parameters              
                                                                                
   Description                                                                  
     l     E      TYP  RCUT    TYP  RCUT                                        
     0   .000     23  1.100                                                     
     0   .500     23  1.100                                                     
     1  -.300     23  1.100                                                     
  local pseudopotential read in
  atomic valenz-charges read in
  non local Contribution for L=           0  read in
    real space projection operators read in
  non local Contribution for L=           0  read in
    real space projection operators read in
  non local Contribution for L=           1  read in
    real space projection operators read in
    PAW grid and wavefunctions read in
 
   number of l-projection  operators is LMAX  =           3
   number of lm-projection operators is LMMAX =           5
 
 POTCAR:   PAW_PBE N 08Apr2002                    
   VRHFIN =N: s2p3                                                              
   LEXCH  = PE                                                                  
   EATOM  =   264.5486 eV,   19.4438 Ry                                         
                                                                                
   TITEL  = PAW_PBE N 08Apr2002                                                 
   LULTRA =        F    use ultrasoft PP ?                                      
   IUNSCR =        0    unscreen: 0-lin 1-nonlin 2-no                           
   RPACOR =     .000    partial core radius                                     
   POMASS =   14.001; ZVAL   =    5.000    mass and valenz                      
   RCORE  =    1.500    outmost cutoff radius                                   
   RWIGS  =    1.400; RWIGS  =     .741    wigner-seitz radius (au A)           
   ENMAX  =  400.000; ENMIN  =  300.000 eV                                      
   ICORE  =        2    local potential                                         
   LCOR   =        T    correct aug charges                                     
   LPAW   =        T    paw PP                                                  
   EAUG   =  627.112                                                            
   DEXC   =     .000                                                            
   RMAX   =    2.247    core radius for proj-oper                               
   RAUG   =    1.300    factor for augmentation sphere                          
   RDEP   =    1.514    radius for radial grids                                 
   QCUT   =   -5.562; QGAM   =   11.124    optimization parameters              
                                                                                
   Description                                                                  
     l     E      TYP  RCUT    TYP  RCUT                                        
     0   .000     23  1.200                                                     
     0   .000     23  1.200                                                     
     1   .000     23  1.500                                                     
     1   .700     23  1.500                                                     
     2   .000      7  1.500                                                     
  local pseudopotential read in
  atomic valenz-charges read in
  non local Contribution for L=           0  read in
    real space projection operators read in
  non local Contribution for L=           0  read in
    real space projection operators read in
  non local Contribution for L=           1  read in
    real space projection operators read in
  non local Contribution for L=           1  read in
    real space projection operators read in
    PAW grid and wavefunctions read in
 
   number of l-projection  operators is LMAX  =           4
   number of lm-projection operators is LMMAX =           8
 

 ----------------------------------------------------------------------------- 
|                                                                             |
|  ADVICE TO THIS USER RUNNING 'VASP/VAMP'   (HEAR YOUR MASTER'S VOICE ...):  |
|                                                                             |
|      You have a (more or less) 'large supercell' and for larger cells       |
|      it might be more efficient to use real space projection opertators     |
|      So try LREAL= Auto  in the INCAR   file.                               |
|      Mind: At the moment your POTCAR file does not contain real space       |
|       projectors, and has to be modified,  BUT if you                       |
|      want to do an extremely  accurate calculation you might also keep the  |
|      reciprocal projection scheme          (i.e. LREAL=.FALSE.)             |
|                                                                             |
 ----------------------------------------------------------------------------- 

  PAW_PBE Mg 13Apr2007                  :
 energy of atom  1       EATOM=  -23.0369
 kinetic energy error for atom=    0.0000 (will be added to EATOM!!)
 PAW_PBE O 08Apr2002                    :
 energy of atom  2       EATOM= -432.3788
 kinetic energy error for atom=    0.0091 (will be added to EATOM!!)
 PAW_PBE C 08Apr2002                    :
 energy of atom  3       EATOM= -147.1560
 kinetic energy error for atom=    0.0032 (will be added to EATOM!!)
 PAW_PBE H 15Jun2001                    :
 energy of atom  4       EATOM=  -12.4884
 kinetic energy error for atom=    0.0002 (will be added to EATOM!!)
 PAW_PBE N 08Apr2002                    :
 energy of atom  5       EATOM= -264.5486
 kinetic energy error for atom=    0.0061 (will be added to EATOM!!)
 
 
 POSCAR: C3 H3 Co O6, H5 N2                      
  positions in direct lattice
  velocities in cartesian coordinates
 exchange correlation table for  LEXCH =        8
   RHO(1)=    0.500       N(1)  =     2000
   RHO(2)=  100.500       N(2)  =     4000
 


--------------------------------------------------------------------------------------------------------


 ion  position               nearest neighbor table
   1  0.997  0.963  0.500-  26 2.08  12 2.08  13 2.09  20 2.11  21 2.12   5 2.14
   2  0.003  0.037  0.000-  25 2.08  11 2.08  14 2.09  19 2.11  22 2.12   6 2.14
   3  0.497  0.537  0.000-  28 2.08  10 2.08  15 2.09  18 2.11  23 2.12   7 2.14
   4  0.503  0.463  0.500-  27 2.08   9 2.08  16 2.09  17 2.11  24 2.12   8 2.14
   5  0.096  0.173  0.440-  29 1.28   1 2.14
   6  0.904  0.827  0.940-  30 1.28   2 2.14
   7  0.596  0.327  0.940-  31 1.28   3 2.14
   8  0.404  0.673  0.440-  32 1.28   4 2.14
   9  0.297  0.348  0.439-  29 1.26   4 2.08
  10  0.703  0.652  0.939-  30 1.26   3 2.08
  11  0.797  0.152  0.939-  31 1.26   2 2.08
  12  0.203  0.848  0.439-  32 1.26   1 2.08
  13  0.788  0.072  0.564-  33 1.26   1 2.09
  14  0.212  0.928  0.064-  34 1.26   2 2.09
  15  0.288  0.428  0.064-  35 1.26   3 2.09
  16  0.712  0.572  0.564-  36 1.26   4 2.09
  17  0.596  0.256  0.565-  33 1.28   4 2.11
  18  0.404  0.744  0.065-  34 1.28   3 2.11
  19  0.096  0.244  0.065-  35 1.28   2 2.11
  20  0.904  0.756  0.565-  36 1.28   1 2.11
  21  0.874  0.946  0.341-  37 1.28   1 2.12
  22  0.126  0.054  0.841-  38 1.28   2 2.12
  23  0.374  0.554  0.841-  39 1.28   3 2.12
  24  0.626  0.446  0.341-  40 1.28   4 2.12
  25  0.881  0.002  0.154-  37 1.26   2 2.08
  26  0.119  0.998  0.654-  38 1.26   1 2.08
  27  0.381  0.498  0.654-  39 1.26   4 2.08
  28  0.619  0.502  0.154-  40 1.26   3 2.08
  29  0.234  0.226  0.474-  49 1.11   9 1.26   5 1.28
  30  0.766  0.774  0.974-  50 1.11  10 1.26   6 1.28
  31  0.734  0.274  0.974-  51 1.11  11 1.26   7 1.28
  32  0.266  0.726  0.474-  52 1.11  12 1.26   8 1.28
  33  0.717  0.185  0.521-  53 1.11  13 1.26  17 1.28
  34  0.283  0.815  0.021-  54 1.11  14 1.26  18 1.28
  35  0.217  0.315  0.021-  55 1.11  15 1.26  19 1.28
  36  0.783  0.685  0.521-  56 1.11  16 1.26  20 1.28
  37  0.949  0.988  0.251-  57 1.11  25 1.26  21 1.28
  38  0.051  0.012  0.751-  58 1.11  26 1.26  22 1.28
  39  0.449  0.512  0.751-  59 1.11  27 1.26  23 1.28
  40  0.551  0.488  0.251-  60 1.11  28 1.26  24 1.28
  41  0.046  0.524  0.285-  65 1.09  61 1.10  93 1.49  45 1.51
  42  0.954  0.476  0.785-  66 1.09  62 1.10  94 1.49  46 1.51
  43  0.546  0.976  0.785-  67 1.09  63 1.10  95 1.49  47 1.51
  44  0.454  0.024  0.285-  68 1.09  64 1.10  96 1.49  48 1.51
  45  0.999  0.629  0.188-  73 1.09  77 1.09  69 1.10  41 1.51
  46  0.001  0.371  0.688-  74 1.09  78 1.09  70 1.10  42 1.51
  47  0.499  0.871  0.688-  75 1.09  79 1.09  71 1.10  43 1.51
  48  0.501  0.129  0.188-  76 1.09  80 1.09  72 1.10  44 1.51
  49  0.302  0.158  0.538-  29 1.11
  50  0.698  0.842  0.038-  30 1.11
  51  0.802  0.342  0.038-  31 1.11
  52  0.198  0.658  0.538-  32 1.11
  53  0.762  0.228  0.437-  33 1.11
  54  0.238  0.772  0.937-  34 1.11
  55  0.262  0.272  0.937-  35 1.11
  56  0.738  0.728  0.437-  36 1.11
  57  0.082  0.014  0.258-  37 1.11
  58  0.918  0.986  0.758-  38 1.11
  59  0.582  0.486  0.758-  39 1.11
  60  0.418  0.514  0.258-  40 1.11
  61  0.007  0.570  0.368-  41 1.10
  62  0.993  0.430  0.868-  42 1.10
  63  0.507  0.930  0.868-  43 1.10
  64  0.493  0.070  0.368-  44 1.10
  65  0.179  0.505  0.288-  41 1.09
  66  0.821  0.495  0.788-  42 1.09
  67  0.679  0.995  0.788-  43 1.09
  68  0.321  0.005  0.288-  44 1.09
  69  0.029  0.578  0.105-  45 1.10
  70  0.971  0.422  0.605-  46 1.10
  71  0.529  0.922  0.605-  47 1.10
  72  0.471  0.078  0.105-  48 1.10
  73  0.069  0.734  0.195-  45 1.09
  74  0.931  0.266  0.695-  46 1.09
  75  0.569  0.766  0.695-  47 1.09
  76  0.431  0.234  0.195-  48 1.09
  77  0.867  0.656  0.189-  45 1.09
  78  0.133  0.344  0.689-  46 1.09
  79  0.367  0.844  0.689-  47 1.09
  80  0.633  0.156  0.189-  48 1.09
  81  0.841  0.382  0.279-  93 1.04
  82  0.159  0.618  0.779-  94 1.04
  83  0.341  0.118  0.779-  95 1.04
  84  0.659  0.882  0.279-  96 1.04
  85  0.012  0.298  0.337-  93 1.06
  86  0.988  0.702  0.837-  94 1.06
  87  0.512  0.202  0.837-  95 1.06
  88  0.488  0.798  0.337-  96 1.06
  89  0.003  0.323  0.194-  93 1.05
  90  0.997  0.677  0.694-  94 1.05
  91  0.503  0.177  0.694-  95 1.05
  92  0.497  0.823  0.194-  96 1.05
  93  0.969  0.371  0.272-  81 1.04  89 1.05  85 1.06  41 1.49
  94  0.031  0.629  0.772-  82 1.04  90 1.05  86 1.06  42 1.49
  95  0.469  0.129  0.772-  83 1.04  91 1.05  87 1.06  43 1.49
  96  0.531  0.871  0.272-  84 1.04  92 1.05  88 1.06  44 1.49
 
  LATTYP: Found a simple orthorhombic cell.
 ALAT       =     8.1247303458
 B/A-ratio  =     1.0837399018
 C/A-ratio  =     1.4433832595
  
  Lattice vectors:
  
 A1 = (   8.1247303458,   0.0000000000,   0.0000000000)
 A2 = (   0.0000000000,   8.8050944674,   0.0000000000)
 A3 = (   0.0000000000,   0.0000000000,  11.7270997692)


Analysis of symmetry for initial positions (statically):
=====================================================================
 Subroutine PRICEL returns:
 Original cell was already a primitive cell.
 

 Routine SETGRP: Setting up the symmetry group for a 
 simple orthorhombic supercell.


 Subroutine GETGRP returns: Found  4 space group operations
 (whereof  1 operations were pure point group operations)
 out of a pool of  8 trial point group operations.


The static configuration has the point symmetry C_1 .
 The point group associated with its full space group is C_2v.


Analysis of symmetry for dynamics (positions and initial velocities):
=====================================================================
 Subroutine PRICEL returns:
 Original cell was already a primitive cell.
 

 Routine SETGRP: Setting up the symmetry group for a 
 simple orthorhombic supercell.


 Subroutine GETGRP returns: Found  4 space group operations
 (whereof  1 operations were pure point group operations)
 out of a pool of  8 trial point group operations.


The dynamic configuration has the point symmetry C_1 .
 The point group associated with its full space group is C_2v.


Analysis of magnetic symmetry:
=====================================================================
 Subroutine PRICEL returns:
 Original cell was already a primitive cell.
 

 Subroutine MAGSYM returns: Found  4 space group operations
 (whereof  1 operations were pure point group operations)
 out of a pool of  4 trial space group operations
 (whereof  1 operations were pure point group operations)
 and found also     1 'primitive' translations


The magnetic configuration has the point symmetry C_1 .
 The point group associated with its full space group is C_2v.
 
 
 KPOINTS: Automatic mesh                          

Automatic generation of k-mesh.
Space group operators:
 irot       det(A)        alpha          n_x          n_y          n_z        tau_x        tau_y        tau_z
    1     1.000000     0.000000     1.000000     0.000000     0.000000     0.000000     0.000000     0.000000
    2     1.000000   180.000000     0.000000     0.000000     1.000000     0.000000     0.000000     0.500000
    3    -1.000000   179.999999     0.000000     1.000000     0.000000     0.500000     0.500000     0.500000
    4    -1.000000   180.000000     1.000000     0.000000     0.000000     0.500000     0.500000     0.000000
 
 Subroutine IBZKPT returns following result:
 ===========================================
 
 Found      8 irreducible k-points:
 
 Following reciprocal coordinates:
            Coordinates               Weight
  0.125000  0.125000  0.125000      8.000000
  0.375000  0.125000  0.125000      8.000000
  0.125000  0.375000  0.125000      8.000000
  0.375000  0.375000  0.125000      8.000000
  0.125000  0.125000  0.375000      8.000000
  0.375000  0.125000  0.375000      8.000000
  0.125000  0.375000  0.375000      8.000000
  0.375000  0.375000  0.375000      8.000000
 
 Following cartesian coordinates:
            Coordinates               Weight
  0.015385  0.014196  0.010659      8.000000
  0.046155  0.014196  0.010659      8.000000
  0.015385  0.042589  0.010659      8.000000
  0.046155  0.042589  0.010659      8.000000
  0.015385  0.014196  0.031977      8.000000
  0.046155  0.014196  0.031977      8.000000
  0.015385  0.042589  0.031977      8.000000
  0.046155  0.042589  0.031977      8.000000
 
 
 Subroutine IBZKPT_HF returns following result:
 ==============================================
 
 Found     64 k-points in 1st BZ
 the following     64 k-points will be used (e.g. in the exchange kernel)
 Following reciprocal coordinates:   # in IRBZ
  0.125000  0.125000  0.125000    0.01562500   1 t-inv F
  0.375000  0.125000  0.125000    0.01562500   2 t-inv F
  0.125000  0.375000  0.125000    0.01562500   3 t-inv F
  0.375000  0.375000  0.125000    0.01562500   4 t-inv F
  0.125000  0.125000  0.375000    0.01562500   5 t-inv F
  0.375000  0.125000  0.375000    0.01562500   6 t-inv F
  0.125000  0.375000  0.375000    0.01562500   7 t-inv F
  0.375000  0.375000  0.375000    0.01562500   8 t-inv F
 -0.125000 -0.125000  0.125000    0.01562500   1 t-inv F
  0.125000 -0.125000  0.125000    0.01562500   1 t-inv F
 -0.125000  0.125000  0.125000    0.01562500   1 t-inv F
 -0.375000 -0.125000  0.125000    0.01562500   2 t-inv F
  0.375000 -0.125000  0.125000    0.01562500   2 t-inv F
 -0.375000  0.125000  0.125000    0.01562500   2 t-inv F
 -0.125000 -0.375000  0.125000    0.01562500   3 t-inv F
  0.125000 -0.375000  0.125000    0.01562500   3 t-inv F
 -0.125000  0.375000  0.125000    0.01562500   3 t-inv F
 -0.375000 -0.375000  0.125000    0.01562500   4 t-inv F
  0.375000 -0.375000  0.125000    0.01562500   4 t-inv F
 -0.375000  0.375000  0.125000    0.01562500   4 t-inv F
 -0.125000 -0.125000  0.375000    0.01562500   5 t-inv F
  0.125000 -0.125000  0.375000    0.01562500   5 t-inv F
 -0.125000  0.125000  0.375000    0.01562500   5 t-inv F
 -0.375000 -0.125000  0.375000    0.01562500   6 t-inv F
  0.375000 -0.125000  0.375000    0.01562500   6 t-inv F
 -0.375000  0.125000  0.375000    0.01562500   6 t-inv F
 -0.125000 -0.375000  0.375000    0.01562500   7 t-inv F
  0.125000 -0.375000  0.375000    0.01562500   7 t-inv F
 -0.125000  0.375000  0.375000    0.01562500   7 t-inv F
 -0.375000 -0.375000  0.375000    0.01562500   8 t-inv F
  0.375000 -0.375000  0.375000    0.01562500   8 t-inv F
 -0.375000  0.375000  0.375000    0.01562500   8 t-inv F
 -0.125000 -0.125000 -0.125000    0.01562500   1 t-inv T
  0.125000  0.125000 -0.125000    0.01562500   1 t-inv T
 -0.125000  0.125000 -0.125000    0.01562500   1 t-inv T
  0.125000 -0.125000 -0.125000    0.01562500   1 t-inv T
 -0.375000 -0.125000 -0.125000    0.01562500   2 t-inv T
  0.375000  0.125000 -0.125000    0.01562500   2 t-inv T
 -0.375000  0.125000 -0.125000    0.01562500   2 t-inv T
  0.375000 -0.125000 -0.125000    0.01562500   2 t-inv T
 -0.125000 -0.375000 -0.125000    0.01562500   3 t-inv T
  0.125000  0.375000 -0.125000    0.01562500   3 t-inv T
 -0.125000  0.375000 -0.125000    0.01562500   3 t-inv T
  0.125000 -0.375000 -0.125000    0.01562500   3 t-inv T
 -0.375000 -0.375000 -0.125000    0.01562500   4 t-inv T
  0.375000  0.375000 -0.125000    0.01562500   4 t-inv T
 -0.375000  0.375000 -0.125000    0.01562500   4 t-inv T
  0.375000 -0.375000 -0.125000    0.01562500   4 t-inv T
 -0.125000 -0.125000 -0.375000    0.01562500   5 t-inv T
  0.125000  0.125000 -0.375000    0.01562500   5 t-inv T
 -0.125000  0.125000 -0.375000    0.01562500   5 t-inv T
  0.125000 -0.125000 -0.375000    0.01562500   5 t-inv T
 -0.375000 -0.125000 -0.375000    0.01562500   6 t-inv T
  0.375000  0.125000 -0.375000    0.01562500   6 t-inv T
 -0.375000  0.125000 -0.375000    0.01562500   6 t-inv T
  0.375000 -0.125000 -0.375000    0.01562500   6 t-inv T
 -0.125000 -0.375000 -0.375000    0.01562500   7 t-inv T
  0.125000  0.375000 -0.375000    0.01562500   7 t-inv T
 -0.125000  0.375000 -0.375000    0.01562500   7 t-inv T
  0.125000 -0.375000 -0.375000    0.01562500   7 t-inv T
 -0.375000 -0.375000 -0.375000    0.01562500   8 t-inv T
  0.375000  0.375000 -0.375000    0.01562500   8 t-inv T
 -0.375000  0.375000 -0.375000    0.01562500   8 t-inv T
  0.375000 -0.375000 -0.375000    0.01562500   8 t-inv T


--------------------------------------------------------------------------------------------------------




 Dimension of arrays:
   k-points           NKPTS =      8   k-points in BZ     NKDIM =      8   number of bands    NBANDS=    288
   number of dos      NEDOS =   6000   number of ions     NIONS =     96
   non local maximal  LDIM  =      5   non local SUM 2l+1 LMDIM =     13
   total plane-waves  NPLWV = 604800
   max r-space proj   IRMAX =      1   max aug-charges    IRDMAX=   8014
   dimension x,y,z NGX =    70 NGY =   80 NGZ =  108
   dimension x,y,z NGXF=    90 NGYF=   98 NGZF=  140
   support grid    NGXF=    90 NGYF=   98 NGZF=  140
   ions per type =               4  24  20  44   4
 NGX,Y,Z   is equivalent  to a cutoff of  14.32, 15.10, 15.31 a.u.
 NGXF,Y,Z  is equivalent  to a cutoff of  18.42, 18.50, 19.85 a.u.


 I would recommend the setting:
   dimension x,y,z NGX =    70 NGY =   76 NGZ =  101
 SYSTEM =  Mg-MOF                                  
 POSCAR =  C3 H3 Co O6, H5 N2                      

 Startparameter for this run:
   NWRITE =      2    write-flag & timer
   PREC   = high      normal or accurate (medium, high low for compatibility)
   ISTART =      0    job   : 0-new  1-cont  2-samecut
   ICHARG =      1    charge: 1-file 2-atom 10-const
   ISPIN  =      2    spin polarized calculation?
   LNONCOLLINEAR =      F non collinear calculations
   LSORBIT =      F    spin-orbit coupling
   INIWAV =      1    electr: 0-lowe 1-rand  2-diag
   LASPH  =      F    aspherical Exc in radial PAW
   METAGGA=      F    non-selfconsistent MetaGGA calc.

 Electronic Relaxation 1
   ENCUT  =  700.0 eV  51.45 Ry    7.17 a.u.  17.53 19.00 25.30*2*pi/ulx,y,z
   ENINI  =  700.0     initial cutoff
   ENAUG  =  644.9 eV  augmentation charge cutoff
   NELM   =   2000;   NELMIN=  2; NELMDL= -3     # of ELM steps 
   EDIFF  = 0.1E-05   stopping-criterion for ELM
   LREAL  =      F    real-space projection
   NLSPLINE    = F    spline interpolate recip. space projectors
   LCOMPAT=      F    compatible to vasp.4.4
   GGA_COMPAT  = T    GGA compatible to vasp.4.4-vasp.4.6
   LMAXPAW     = -100 max onsite density
   LMAXMIX     =    2 max onsite mixed and CHGCAR
   VOSKOWN=      0    Vosko Wilk Nusair interpolation
   ROPT   =    0.00000   0.00000   0.00000   0.00000
   ROPT   =    0.00000
 Ionic relaxation
   EDIFFG = 0.1E-04   stopping-criterion for IOM
   NSW    =      0    number of steps for IOM
   NBLOCK =      1;   KBLOCK =      1    inner block; outer block 
   IBRION =     -1    ionic relax: 0-MD 1-quasi-New 2-CG
   NFREE  =      0    steps in history (QN), initial steepest desc. (CG)
   ISIF   =      2    stress and relaxation
   IWAVPR =     10    prediction:  0-non 1-charg 2-wave 3-comb
   ISYM   =      2    0-nonsym 1-usesym 2-fastsym
   LCORR  =      T    Harris-Foulkes like correction to forces

   POTIM  = 0.5000    time-step for ionic-motion
   TEIN   =    0.0    initial temperature
   TEBEG  =    0.0;   TEEND  =   0.0 temperature during run
   SMASS  =  -3.00    Nose mass-parameter (am)
   estimated Nose-frequenzy (Omega)   =  0.10E-29 period in steps =****** mass=  -0.151E-26a.u.
   SCALEE = 1.0000    scale energy and forces
   NPACO  =    256;   APACO  = 16.0  distance and # of slots for P.C.
   PSTRESS=    0.0 pullay stress

  Mass of Ions in am
   POMASS =  24.30 16.00 12.01  1.00 14.00
  Ionic Valenz
   ZVAL   =   2.00  6.00  4.00  1.00  5.00
  Atomic Wigner-Seitz radii
   RWIGS  =  -1.00 -1.00 -1.00 -1.00 -1.00
  virtual crystal weights 
   VCA    =   1.00  1.00  1.00  1.00  1.00
   NELECT =     296.0000    total number of electrons
   NUPDOWN=      -1.0000    fix difference up-down

 DOS related values:
   EMIN   =  10.00;   EMAX   =-10.00  energy-range for DOS
   EFERMI =   0.00
   ISMEAR =     0;   SIGMA  =   0.10  broadening in eV -4-tet -1-fermi 0-gaus

 Electronic relaxation 2 (details)
   IALGO  =     38    algorithm
   LDIAG  =      T    sub-space diagonalisation (order eigenvalues)
   LSUBROT=      F    optimize rotation matrix (better conditioning)
   TURBO    =      0    0=normal 1=particle mesh
   IRESTART =      0    0=no restart 2=restart with 2 vectors
   NREBOOT  =      0    no. of reboots
   NMIN     =      0    reboot dimension
   EREF     =   0.00    reference energy to select bands
   IMIX   =      4    mixing-type and parameters
     AMIX     =   0.40;   BMIX     =  1.00
     AMIX_MAG =   1.60;   BMIX_MAG =  1.00
     AMIN     =   0.10
     WC   =   100.;   INIMIX=   1;  MIXPRE=   1;  MAXMIX= -45

 Intra band minimization:
   WEIMIN = 0.0000     energy-eigenvalue tresh-hold
   EBREAK =  0.87E-09  absolut break condition
   DEPER  =   0.30     relativ break condition  

   TIME   =   0.40     timestep for ELM

  volume/ion in A,a.u.               =       8.74        58.97
  Fermi-wavevector in a.u.,A,eV,Ry     =   1.156807  2.186048 18.207346  1.338202
  Thomas-Fermi vector in A             =   2.293424
 
 Write flags
   LWAVE  =      F    write WAVECAR
   LCHARG =      T    write CHGCAR
   LVTOT  =      F    write LOCPOT, total local potential
   LVHAR  =      F    write LOCPOT, Hartree potential only
   LELF   =      F    write electronic localiz. function (ELF)
   LORBIT =     10    0 simple, 1 ext, 2 COOP (PROOUT)


 Dipole corrections
   LMONO  =      F    monopole corrections only (constant potential shift)
   LDIPOL =      F    correct potential (dipole corrections)
   IDIPOL =      0    1-x, 2-y, 3-z, 4-all directions 
   EPSILON=  1.0000000 bulk dielectric constant

 Exchange correlation treatment:
   GGA     =    --    GGA type
   LEXCH   =     8    internal setting for exchange type
   VOSKOWN=      0    Vosko Wilk Nusair interpolation
   LHFCALC =     F    Hartree Fock is set to
   LHFONE  =     F    Hartree Fock one center treatment
   AEXX    =    0.0000 exact exchange contribution

 Linear response parameters
   LEPSILON=     F    determine dielectric tensor
   LRPA    =     F    only Hartree local field effects (RPA)
   LNABLA  =     F    use nabla operator in PAW spheres
   LVEL    =     F    velocity operator in full k-point grid
   LINTERFAST=   F  fast interpolation
   KINTER  =     0    interpolate to denser k-point grid
   CSHIFT  =0.1000    complex shift for real part using Kramers Kronig
   OMEGAMAX=  -1.0    maximum frequency
   DEG_THRESHOLD= 0.2000000E-02 threshold for treating states as degnerate
   RTIME   =    0.100 relaxation time in fs

 Orbital magnetization related:
   ORBITALMAG=     F  switch on orbital magnetization
   LCHIMAG   =     F  perturbation theory with respect to B field
   DQ        =  0.001000  dq finite difference perturbation B field

 PEAD related settings:
   LPEAD      =     T    switch on PEAD
   IPEAD      =     4    finite difference order for dpsi/dk
   LCALCPOL   =     T    calculate macroscopic polarization
   LCALCEPS   =     F    calculate dielectric tensor
   EFIELD_PEAD=    0.0000    0.0000    0.0000
   SKIP_EDOTP =     F
   LRPA       =     F
   SKIP_SCF   =     F


--------------------------------------------------------------------------------------------------------


 Static calculation
 charge density and potential will be updated during run
 spin polarized calculation
 Variant of blocked Davidson
 Davidson routine will perform the subspace rotation
 perform sub-space diagonalisation
    after iterative eigenvector-optimisation
 modified Broyden-mixing scheme, WC =      100.0
 initial mixing is a Kerker type mixing with AMIX =  0.4000 and BMIX =      1.0000
 Hartree-type preconditioning will be used
 using additional bands          140
 reciprocal scheme for non local part
 use partial core corrections
 calculate Harris-corrections to forces 
   (improved forces if not selfconsistent)
 use gradient corrections 
 use of overlap-Matrix (Vanderbilt PP)
 Gauss-broadening in eV      SIGMA  =   0.10


--------------------------------------------------------------------------------------------------------


  energy-cutoff  :      700.00
  volume of cell :      838.95
      direct lattice vectors                 reciprocal lattice vectors
     8.124730346  0.000000000  0.000000000     0.123081008  0.000000000  0.000000000
     0.000000000  8.805094467  0.000000000     0.000000000  0.113570616  0.000000000
     0.000000000  0.000000000 11.727099769     0.000000000  0.000000000  0.085272575

  length of vectors
     8.124730346  8.805094467 11.727099769     0.123081008  0.113570616  0.085272575


 
 k-points in units of 2pi/SCALE and weight: Automatic mesh                          
   0.01538513  0.01419633  0.01065907       0.125
   0.04615538  0.01419633  0.01065907       0.125
   0.01538513  0.04258898  0.01065907       0.125
   0.04615538  0.04258898  0.01065907       0.125
   0.01538513  0.01419633  0.03197722       0.125
   0.04615538  0.01419633  0.03197722       0.125
   0.01538513  0.04258898  0.03197722       0.125
   0.04615538  0.04258898  0.03197722       0.125
 
 k-points in reciprocal lattice and weights: Automatic mesh                          
   0.12500000  0.12500000  0.12500000       0.125
   0.37500000  0.12500000  0.12500000       0.125
   0.12500000  0.37500000  0.12500000       0.125
   0.37500000  0.37500000  0.12500000       0.125
   0.12500000  0.12500000  0.37500000       0.125
   0.37500000  0.12500000  0.37500000       0.125
   0.12500000  0.37500000  0.37500000       0.125
   0.37500000  0.37500000  0.37500000       0.125
 
 position of ions in fractional coordinates (direct lattice) 
   0.99699161  0.96272731  0.50045916
   0.00300840  0.03727269  0.00045916
   0.49699160  0.53727270  0.00045916
   0.50300840  0.46272731  0.50045916
   0.09573489  0.17292868  0.44049746
   0.90426511  0.82707132  0.94049746
   0.59573489  0.32707132  0.94049746
   0.40426511  0.67292868  0.44049746
   0.29668068  0.34841579  0.43881748
   0.70331932  0.65158421  0.93881748
   0.79668069  0.15158421  0.93881748
   0.20331932  0.84841580  0.43881748
   0.78836033  0.07228543  0.56441463
   0.21163967  0.92771457  0.06441463
   0.28836033  0.42771457  0.06441463
   0.71163967  0.57228543  0.56441463
   0.59591454  0.25629425  0.56486011
   0.40408547  0.74370575  0.06486011
   0.09591453  0.24370575  0.06486011
   0.90408547  0.75629425  0.56486011
   0.87420976  0.94614344  0.34130370
   0.12579024  0.05385657  0.84130371
   0.37420976  0.55385657  0.84130371
   0.62579024  0.44614344  0.34130370
   0.88141982  0.00159271  0.15440185
   0.11858018  0.99840729  0.65440186
   0.38141982  0.49840729  0.65440186
   0.61858018  0.50159271  0.15440185
   0.23401546  0.22608422  0.47384598
   0.76598454  0.77391579  0.97384598
   0.73401546  0.27391579  0.97384598
   0.26598454  0.72608422  0.47384598
   0.71736882  0.18531031  0.52089334
   0.28263118  0.81468969  0.02089334
   0.21736882  0.31468969  0.02089334
   0.78263118  0.68531031  0.52089334
   0.94864324  0.98795775  0.25086098
   0.05135676  0.01204226  0.75086098
   0.44864324  0.51204226  0.75086098
   0.55135676  0.48795775  0.25086098
   0.04568657  0.52434927  0.28468692
   0.95431344  0.47565073  0.78468693
   0.54568657  0.97565073  0.78468693
   0.45431344  0.02434927  0.28468692
   0.99860795  0.62918972  0.18810339
   0.00139205  0.37081029  0.68810339
   0.49860795  0.87081029  0.68810339
   0.50139205  0.12918971  0.18810339
   0.30161610  0.15771351  0.53770457
   0.69838390  0.84228650  0.03770457
   0.80161610  0.34228649  0.03770457
   0.19838390  0.65771351  0.53770457
   0.76150241  0.22771058  0.43735045
   0.23849760  0.77228942  0.93735045
   0.26150241  0.27228942  0.93735045
   0.73849760  0.72771058  0.43735045
   0.08153570  0.01426686  0.25794917
   0.91846430  0.98573314  0.75794917
   0.58153571  0.48573314  0.75794917
   0.41846430  0.51426686  0.25794917
   0.00735965  0.56950047  0.36770091
   0.99264035  0.43049953  0.86770091
   0.50735965  0.93049953  0.86770091
   0.49264035  0.06950047  0.36770091
   0.17851390  0.50548597  0.28817036
   0.82148610  0.49451403  0.78817036
   0.67851390  0.99451403  0.78817036
   0.32148610  0.00548597  0.28817036
   0.02922630  0.57840190  0.10538632
   0.97077370  0.42159810  0.60538632
   0.52922631  0.92159811  0.60538632
   0.47077370  0.07840190  0.10538632
   0.06942819  0.73437210  0.19545283
   0.93057181  0.26562791  0.69545283
   0.56942819  0.76562791  0.69545283
   0.43057181  0.23437209  0.19545283
   0.86713250  0.65644161  0.18893019
   0.13286750  0.34355839  0.68893019
   0.36713250  0.84355839  0.68893019
   0.63286750  0.15644161  0.18893019
   0.84141834  0.38185604  0.27901968
   0.15858166  0.61814396  0.77901968
   0.34141834  0.11814396  0.77901968
   0.65858167  0.88185604  0.27901968
   0.01183879  0.29799451  0.33718321
   0.98816122  0.70200549  0.83718321
   0.51183879  0.20200549  0.83718321
   0.48816121  0.79799452  0.33718321
   0.00327787  0.32347442  0.19392045
   0.99672214  0.67652559  0.69392045
   0.50327787  0.17652558  0.69392045
   0.49672214  0.82347442  0.19392045
   0.96864484  0.37109219  0.27241686
   0.03135516  0.62890781  0.77241686
   0.46864484  0.12890781  0.77241686
   0.53135516  0.87109220  0.27241686
 
 position of ions in cartesian coordinates  (Angst):
   8.10028795  8.47690489  5.86893449
   0.02444241  0.32818959  0.00538459
   4.03792277  4.73073684  0.00538459
   4.08680759  4.07435765  5.86893449
   0.77782017  1.52265335  5.16575769
   7.34691019  7.28244113 11.02930758
   4.84018535  2.87989389 11.02930758
   3.28454501  5.92520060  5.16575769
   2.41045056  3.06783398  5.14605640
   5.71427980  5.73726050 11.00960629
   6.47281574  1.33471326 11.00960629
   1.65191462  7.47038123  5.14605640
   6.40521512  0.63648002  6.61894673
   1.71951525  8.16861447  0.75539683
   2.34284994  3.76606723  0.75539683
   5.78188043  5.03902726  6.61894673
   4.84164491  2.25669512  6.62417085
   3.28308545  6.54839937  0.76062095
   0.77927973  2.14585213  0.76062095
   7.34545064  6.65924236  6.62417085
   7.10271859  8.33088234  4.00250259
   1.02201177  0.47421215  9.86605249
   3.04035341  4.87675939  9.86605249
   5.08437695  3.92833509  4.00250259
   7.16129835  0.01402398  1.81068596
   0.96343201  8.79107051  7.67423585
   3.09893317  4.38852329  7.67423585
   5.02579719  4.41657120  1.81068596
   1.90131249  1.99069287  5.55683912
   6.22341787  6.81440161 11.42038901
   5.96367767  2.41185437 11.42038901
   2.16105269  6.39324012  5.55683912
   5.82842824  1.63167478  6.10856817
   2.29630212  7.17341971  0.24501827
   1.76606306  2.77087247  0.24501827
   6.35866731  6.03422202  6.10856817
   7.70747051  8.69906129  2.94187178
   0.41725985  0.10603319  8.80542168
   3.64510533  4.50858044  8.80542168
   4.47962503  4.29651405  2.94187178
   0.37119103  4.61694484  3.33855196
   7.75353933  4.18814964  9.20210186
   4.43355621  8.59069688  9.20210186
   3.69117415  0.21439760  3.33855196
   8.11342030  5.54007488  2.20590718
   0.01131006  3.26501960  8.06945708
   4.05105512  7.66756685  8.06945708
   4.07367524  1.13752764  2.20590718
   2.45054950  1.38868233  6.30571512
   5.67418087  7.41641216  0.44216523
   6.51291468  3.01386492  0.44216523
   1.61181568  5.79122957  6.30571512
   6.18700171  2.00501318  5.12885234
   1.93772865  6.80008131 10.99240224
   2.12463653  2.39753406 10.99240224
   6.00009383  6.40756042  5.12885234
   0.66245561  0.12562105  3.02499567
   7.46227475  8.67947343  8.88854557
   4.72482079  4.27692619  8.88854557
   3.39990957  4.52816830  3.02499567
   0.05979518  5.01450542  4.31206526
   8.06493519  3.79058906 10.17561516
   4.12216034  8.19313630 10.17561516
   4.00257002  0.61195818  4.31206526
   1.45037733  4.45085175  3.37940258
   6.67435304  4.35424274  9.24295248
   5.51274251  8.75678998  9.24295248
   2.61198785  0.04830451  3.37940258
   0.23745584  5.09288335  1.23587585
   7.88727452  3.71221114  7.09942575
   4.29982102  8.11475838  7.09942575
   3.82490934  0.69033610  1.23587585
   0.56408532  6.46621568  2.29209485
   7.56064504  2.33887881  8.15564475
   4.62645050  6.74142605  8.15564475
   3.49827986  2.06366844  2.29209485
   7.04521776  5.78003041  2.21560319
   1.07951260  3.02506408  8.07915308
   2.98285258  7.42761132  8.07915308
   5.14187778  1.37748317  2.21560319
   6.83629710  3.36227848  3.27209158
   1.28843326  5.44281601  9.13564148
   2.77393192  1.04026876  9.13564148
   5.35079845  7.76482572  3.27209158
   0.09618695  2.62386985  3.95418119
   8.02854342  6.18122464  9.81773108
   4.15855213  1.77867740  9.81773108
   3.96617824  7.02641709  3.95418119
   0.02663178  2.84822279  2.27412443
   8.09809859  5.95687169  8.13767433
   4.08899696  1.55432445  8.13767433
   4.03573340  7.25077004  2.27412443
   7.86997811  3.26750183  3.19465969
   0.25475225  5.53759266  9.05820959
   3.80761293  1.13504542  9.05820959
   4.31711743  7.67004907  3.19465969
 


--------------------------------------------------------------------------------------------------------


 k-point  1 :   0.1250 0.1250 0.1250  plane waves:   35284
 k-point  2 :   0.3750 0.1250 0.1250  plane waves:   35271
 k-point  3 :   0.1250 0.3750 0.1250  plane waves:   35308
 k-point  4 :   0.3750 0.3750 0.1250  plane waves:   35281
 k-point  5 :   0.1250 0.1250 0.3750  plane waves:   35277
 k-point  6 :   0.3750 0.1250 0.3750  plane waves:   35250
 k-point  7 :   0.1250 0.3750 0.3750  plane waves:   35309
 k-point  8 :   0.3750 0.3750 0.3750  plane waves:   35276

 maximum and minimum number of plane-waves per node :     35309    35250

 maximum number of plane-waves:     35309
 maximum index in each direction: 
   IXMAX=   17   IYMAX=   18   IZMAX=   25
   IXMIN=  -17   IYMIN=  -19   IZMIN=  -25

 NGX is ok and might be reduce to  70
 NGY is ok and might be reduce to  76
 NGZ is ok and might be reduce to 102

 serial   3D FFT for wavefunctions
 parallel 3D FFT for charge:
    minimum data exchange during FFTs selected (reduces bandwidth)


 total amount of memory used by VASP on root node   343073. kBytes
========================================================================

   base      :      30000. kBytes
   nonl-proj :     201228. kBytes
   fftplans  :       3541. kBytes
   grid      :      51451. kBytes
   one-center:       1557. kBytes
   wavefun   :      55296. kBytes
 
     INWAV:  cpu time    0.0000: real time    0.0000
 Broyden mixing: mesh for mixing (old mesh)
   NGX = 35   NGY = 37   NGZ = 51
  (NGX  = 90   NGY  = 98   NGZ  =140)
  gives a total of  66045 points

 initial charge density was supplied:
 charge density of overlapping atoms calculated
 number of electron     296.0000000 magnetization      96.0000000
 keeping initial charge density in first step


--------------------------------------------------------------------------------------------------------


 Maximum index for augmentation-charges          477 (set IRDMAX)


--------------------------------------------------------------------------------------------------------


 First call to EWALD:  gamma=   0.188
 Maximum number of real-space cells 3x 3x 2
 Maximum number of reciprocal cells 2x 3x 3

 FEWALD executed in parallel
    FEWALD:  cpu time    0.0038: real time    0.0038


----------------------------------------- Iteration    1(   1)  ---------------------------------------


    POTLOK:  cpu time    0.1402: real time    0.1403
    SETDIJ:  cpu time    0.0158: real time    0.0163
     EDDAV:  cpu time   39.0144: real time   39.0238
       DOS:  cpu time    0.0048: real time    0.0049
    --------------------------------------------
      LOOP:  cpu time   39.1771: real time   39.1871

 eigenvalue-minimisations  :  9216
 total energy-change (2. order) : 0.1561943E+04  (-0.1706926E+05)
 number of electron     296.0000000 magnetization      96.0000000
 augmentation part      296.0000000 magnetization      96.0000000

 Free energy of the ion-electron system (eV)
  ---------------------------------------------------
  alpha Z        PSCENC =       439.77293268
  Ewald energy   TEWEN  =     -8359.30127053
  -Hartree energ DENC   =     -5660.00967156
  -exchange      EXHF   =         0.00000000
  -V(xc)+E(xc)   XCENC  =       961.68199855
  PAW double counting   =      7386.42138884    -7251.94461600
  entropy T*S    EENTRO =        -0.04606246
  eigenvalues    EBANDS =      -974.35727213
  atomic energy  EATOM  =     15019.72529475
  Solvation  Ediel_sol  =         0.00000000
  ---------------------------------------------------
  free energy    TOTEN  =      1561.94272215 eV

  energy without entropy =     1561.98878460  energy(sigma->0) =     1561.96575338


--------------------------------------------------------------------------------------------------------




----------------------------------------- Iteration    1(   2)  ---------------------------------------


     EDDAV:  cpu time   44.7794: real time   44.7894
       DOS:  cpu time    0.0034: real time    0.0034
    --------------------------------------------
      LOOP:  cpu time   44.7844: real time   44.7946

 eigenvalue-minimisations  : 10992
 total energy-change (2. order) :-0.1951401E+04  (-0.1838929E+04)
 number of electron     296.0000000 magnetization      96.0000000
 augmentation part      296.0000000 magnetization      96.0000000

 Free energy of the ion-electron system (eV)
  ---------------------------------------------------
  alpha Z        PSCENC =       439.77293268
  Ewald energy   TEWEN  =     -8359.30127053
  -Hartree energ DENC   =     -5660.00967156
  -exchange      EXHF   =         0.00000000
  -V(xc)+E(xc)   XCENC  =       961.68199855
  PAW double counting   =      7386.42138884    -7251.94461600
  entropy T*S    EENTRO =        -0.00000000
  eigenvalues    EBANDS =     -2925.80447495
  atomic energy  EATOM  =     15019.72529475
  Solvation  Ediel_sol  =         0.00000000
  ---------------------------------------------------
  free energy    TOTEN  =      -389.45841822 eV

  energy without entropy =     -389.45841822  energy(sigma->0) =     -389.45841822


--------------------------------------------------------------------------------------------------------




----------------------------------------- Iteration    1(   3)  ---------------------------------------


     EDDAV:  cpu time   46.6429: real time   46.6519
       DOS:  cpu time    0.0037: real time    0.0037
    CHARGE:  cpu time    1.2242: real time    1.2245
    MIXING:  cpu time    0.0059: real time    0.0059
    --------------------------------------------
      LOOP:  cpu time   47.8772: real time   47.8867

 eigenvalue-minimisations  : 11520
 total energy-change (2. order) :-0.1261466E+03  (-0.1249928E+03)
 number of electron     296.0000056 magnetization      61.7413996
 augmentation part       22.2333915 magnetization      61.8215172

 Broyden mixing:
  rms(total) = 0.68743E+01    rms(broyden)= 0.68741E+01
  rms(prec ) = 0.75212E+01
  weight for this iteration     100.00

 Free energy of the ion-electron system (eV)
  ---------------------------------------------------
  alpha Z        PSCENC =       439.77293268
  Ewald energy   TEWEN  =     -8359.30127053
  -Hartree energ DENC   =     -5660.00967156
  -exchange      EXHF   =         0.00000000
  -V(xc)+E(xc)   XCENC  =       961.68199855
  PAW double counting   =      7386.42138884    -7251.94461600
  entropy T*S    EENTRO =        -0.00000000
  eigenvalues    EBANDS =     -3051.95103941
  atomic energy  EATOM  =     15019.72529475
  Solvation  Ediel_sol  =         0.00000000
  ---------------------------------------------------
  free energy    TOTEN  =      -515.60498267 eV

  energy without entropy =     -515.60498267  energy(sigma->0) =     -515.60498267


--------------------------------------------------------------------------------------------------------




----------------------------------------- Iteration    1(   4)  ---------------------------------------


    POTLOK:  cpu time    0.1175: real time    0.1175
    SETDIJ:  cpu time    0.0130: real time    0.0130
     EDDAV:  cpu time   47.3259: real time   47.3347
       DOS:  cpu time    0.0031: real time    0.0031
    CHARGE:  cpu time    1.1698: real time    1.1699
    MIXING:  cpu time    0.0023: real time    0.0023
    --------------------------------------------
      LOOP:  cpu time   48.6319: real time   48.6410

 eigenvalue-minimisations  : 11664
 total energy-change (2. order) : 0.1888047E+03  (-0.4469355E+02)
 number of electron     296.0000057 magnetization      37.8538381
 augmentation part       20.3719100 magnetization      36.1186342

 Broyden mixing:
  rms(total) = 0.30785E+01    rms(broyden)= 0.30784E+01
  rms(prec ) = 0.33903E+01
  weight for this iteration     100.00

 eigenvalues of (default mixing * dielectric matrix)
  average eigenvalue GAMMA=   0.9427
  0.9427

 Free energy of the ion-electron system (eV)
  ---------------------------------------------------
  alpha Z        PSCENC =       439.77293268
  Ewald energy   TEWEN  =     -8359.30127053
  -Hartree energ DENC   =     -6193.02398939
  -exchange      EXHF   =         0.00000000
  -V(xc)+E(xc)   XCENC  =      1115.03842536
  PAW double counting   =      8894.62763642    -8769.84353543
  entropy T*S    EENTRO =        -0.00000000
  eigenvalues    EBANDS =     -2473.79575946
  atomic energy  EATOM  =     15019.72529475
  Solvation  Ediel_sol  =         0.00000000
  ---------------------------------------------------
  free energy    TOTEN  =      -326.80026560 eV

  energy without entropy =     -326.80026560  energy(sigma->0) =     -326.80026560


--------------------------------------------------------------------------------------------------------




----------------------------------------- Iteration    1(   5)  ---------------------------------------


    POTLOK:  cpu time    0.1921: real time    0.1921
    SETDIJ:  cpu time    0.0129: real time    0.0129
     EDDAV:  cpu time   44.2661: real time   44.2752
       DOS:  cpu time    0.0037: real time    0.0037
    CHARGE:  cpu time    1.1730: real time    1.1731
    MIXING:  cpu time    0.0017: real time    0.0017
    --------------------------------------------
      LOOP:  cpu time   45.6499: real time   45.6591

 eigenvalue-minimisations  : 10752
 total energy-change (2. order) :-0.1241305E+03  (-0.8046230E+01)
 number of electron     296.0000057 magnetization      19.6802035
 augmentation part       19.5938951 magnetization      18.1114330

 Broyden mixing:
  rms(total) = 0.18025E+01    rms(broyden)= 0.18025E+01
  rms(prec ) = 0.19284E+01
  weight for this iteration     100.00

 eigenvalues of (default mixing * dielectric matrix)
  average eigenvalue GAMMA=   1.0363
  0.8820  1.1906

 Free energy of the ion-electron system (eV)
  ---------------------------------------------------
  alpha Z        PSCENC =       439.77293268
  Ewald energy   TEWEN  =     -8359.30127053
  -Hartree energ DENC   =     -6430.64988346
  -exchange      EXHF   =         0.00000000
  -V(xc)+E(xc)   XCENC  =      1042.95910854
  PAW double counting   =      9614.19673888    -9491.43072057
  entropy T*S    EENTRO =        -0.00000000
  eigenvalues    EBANDS =     -2286.20300017
  atomic energy  EATOM  =     15019.72529475
  Solvation  Ediel_sol  =         0.00000000
  ---------------------------------------------------
  free energy    TOTEN  =      -450.93079989 eV

  energy without entropy =     -450.93079989  energy(sigma->0) =     -450.93079989


--------------------------------------------------------------------------------------------------------




----------------------------------------- Iteration    1(   6)  ---------------------------------------


    POTLOK:  cpu time    0.1178: real time    0.1178
    SETDIJ:  cpu time    0.0129: real time    0.0129
     EDDAV:  cpu time   42.3302: real time   42.3383
       DOS:  cpu time    0.0033: real time    0.0033
    CHARGE:  cpu time    1.1675: real time    1.1678
    MIXING:  cpu time    0.0016: real time    0.0016
    --------------------------------------------
      LOOP:  cpu time   43.6337: real time   43.6422

 eigenvalue-minimisations  : 10224
 total energy-change (2. order) :-0.5602743E+02  (-0.3737100E+01)
 number of electron     296.0000059 magnetization       7.9921011
 augmentation part       19.5199240 magnetization       6.9393529

 Broyden mixing:
  rms(total) = 0.99199E+00    rms(broyden)= 0.99198E+00
  rms(prec ) = 0.10445E+01
  weight for this iteration     100.00

 eigenvalues of (default mixing * dielectric matrix)
  average eigenvalue GAMMA=   1.2694
  1.8553  1.2485  0.7045

 Free energy of the ion-electron system (eV)
  ---------------------------------------------------
  alpha Z        PSCENC =       439.77293268
  Ewald energy   TEWEN  =     -8359.30127053
  -Hartree energ DENC   =     -6493.65822892
  -exchange      EXHF   =         0.00000000
  -V(xc)+E(xc)   XCENC  =      1021.31162370
  PAW double counting   =      9917.58637890    -9794.34956091
  entropy T*S    EENTRO =        -0.00000000
  eigenvalues    EBANDS =     -2258.04539843
  atomic energy  EATOM  =     15019.72529475
  Solvation  Ediel_sol  =         0.00000000
  ---------------------------------------------------
  free energy    TOTEN  =      -506.95822876 eV

  energy without entropy =     -506.95822876  energy(sigma->0) =     -506.95822876


--------------------------------------------------------------------------------------------------------




----------------------------------------- Iteration    1(   7)  ---------------------------------------


    POTLOK:  cpu time    0.1118: real time    0.1118
    SETDIJ:  cpu time    0.0129: real time    0.0129
     EDDAV:  cpu time   45.3001: real time   45.3096
       DOS:  cpu time    0.0039: real time    0.0039
    CHARGE:  cpu time    1.1871: real time    1.1873
    MIXING:  cpu time    0.0020: real time    0.0020
    --------------------------------------------
      LOOP:  cpu time   46.6182: real time   46.6280

 eigenvalue-minimisations  : 11088
 total energy-change (2. order) :-0.5305634E+02  (-0.4802007E+01)
 number of electron     296.0000058 magnetization       5.1076631
 augmentation part       19.2762814 magnetization       4.7248693

 Broyden mixing:
  rms(total) = 0.48933E+00    rms(broyden)= 0.48929E+00
  rms(prec ) = 0.54540E+00
  weight for this iteration     100.00

 eigenvalues of (default mixing * dielectric matrix)
  average eigenvalue GAMMA=   1.2897
  1.8234  1.8234  0.7560  0.7560

 Free energy of the ion-electron system (eV)
  ---------------------------------------------------
  alpha Z        PSCENC =       439.77293268
  Ewald energy   TEWEN  =     -8359.30127053
  -Hartree energ DENC   =     -6484.80910754
  -exchange      EXHF   =         0.00000000
  -V(xc)+E(xc)   XCENC  =       999.16673930
  PAW double counting   =     10014.26205847    -9890.49103271
  entropy T*S    EENTRO =        -0.00000000
  eigenvalues    EBANDS =     -2298.34018447
  atomic energy  EATOM  =     15019.72529475
  Solvation  Ediel_sol  =         0.00000000
  ---------------------------------------------------
  free energy    TOTEN  =      -560.01457004 eV

  energy without entropy =     -560.01457004  energy(sigma->0) =     -560.01457004


--------------------------------------------------------------------------------------------------------




----------------------------------------- Iteration    1(   8)  ---------------------------------------


    POTLOK:  cpu time    0.1142: real time    0.1142
    SETDIJ:  cpu time    0.0130: real time    0.0130
     EDDAV:  cpu time   45.6965: real time   45.7073
       DOS:  cpu time    0.0035: real time    0.0035
    CHARGE:  cpu time    1.1673: real time    1.1676
    MIXING:  cpu time    0.0018: real time    0.0018
    --------------------------------------------
      LOOP:  cpu time   46.9966: real time   47.0078

 eigenvalue-minimisations  : 11136
 total energy-change (2. order) :-0.8064174E+01  (-0.1003985E+01)
 number of electron     296.0000057 magnetization       1.9136193
 augmentation part       19.3051856 magnetization       1.8160019

 Broyden mixing:
  rms(total) = 0.24137E+00    rms(broyden)= 0.24134E+00
  rms(prec ) = 0.25650E+00
  weight for this iteration     100.00

 eigenvalues of (default mixing * dielectric matrix)
  average eigenvalue GAMMA=   1.2941
  2.0315  1.8620  1.0863  0.8319  0.6587

 Free energy of the ion-electron system (eV)
  ---------------------------------------------------
  alpha Z        PSCENC =       439.77293268
  Ewald energy   TEWEN  =     -8359.30127053
  -Hartree energ DENC   =     -6428.08337162
  -exchange      EXHF   =         0.00000000
  -V(xc)+E(xc)   XCENC  =       992.28920238
  PAW double counting   =      9934.70073344    -9810.22530215
  entropy T*S    EENTRO =        -0.00000000
  eigenvalues    EBANDS =     -2356.95696282
  atomic energy  EATOM  =     15019.72529475
  Solvation  Ediel_sol  =         0.00000000
  ---------------------------------------------------
  free energy    TOTEN  =      -568.07874388 eV

  energy without entropy =     -568.07874388  energy(sigma->0) =     -568.07874388


--------------------------------------------------------------------------------------------------------




----------------------------------------- Iteration    1(   9)  ---------------------------------------


    POTLOK:  cpu time    0.1142: real time    0.1142
    SETDIJ:  cpu time    0.0129: real time    0.0129
     EDDAV:  cpu time   44.1713: real time   44.1837
       DOS:  cpu time    0.0036: real time    0.0036
    CHARGE:  cpu time    1.1656: real time    1.1658
    MIXING:  cpu time    0.0020: real time    0.0020
    --------------------------------------------
      LOOP:  cpu time   45.4700: real time   45.4828

 eigenvalue-minimisations  : 10752
 total energy-change (2. order) :-0.1242863E+01  (-0.1805677E+00)
 number of electron     296.0000057 magnetization       0.5909836
 augmentation part       19.3385877 magnetization       0.5662322

 Broyden mixing:
  rms(total) = 0.10605E+00    rms(broyden)= 0.10603E+00
  rms(prec ) = 0.11722E+00
  weight for this iteration     100.00

 eigenvalues of (default mixing * dielectric matrix)
  average eigenvalue GAMMA=   1.3006
  2.5043  1.5092  1.5092  0.8142  0.8142  0.6528

 Free energy of the ion-electron system (eV)
  ---------------------------------------------------
  alpha Z        PSCENC =       439.77293268
  Ewald energy   TEWEN  =     -8359.30127053
  -Hartree energ DENC   =     -6407.70176167
  -exchange      EXHF   =         0.00000000
  -V(xc)+E(xc)   XCENC  =       990.58637014
  PAW double counting   =      9933.18098365    -9808.48443977
  entropy T*S    EENTRO =        -0.00000000
  eigenvalues    EBANDS =     -2377.09971629
  atomic energy  EATOM  =     15019.72529475
  Solvation  Ediel_sol  =         0.00000000
  ---------------------------------------------------
  free energy    TOTEN  =      -569.32160704 eV

  energy without entropy =     -569.32160704  energy(sigma->0) =     -569.32160704


--------------------------------------------------------------------------------------------------------




----------------------------------------- Iteration    1(  10)  ---------------------------------------


    POTLOK:  cpu time    0.1126: real time    0.1127
    SETDIJ:  cpu time    0.0129: real time    0.0129
     EDDAV:  cpu time   44.6180: real time   44.6270
       DOS:  cpu time    0.0040: real time    0.0040
    CHARGE:  cpu time    1.1746: real time    1.1747
    MIXING:  cpu time    0.0021: real time    0.0021
    --------------------------------------------
      LOOP:  cpu time   45.9247: real time   45.9340

 eigenvalue-minimisations  : 10800
 total energy-change (2. order) :-0.2277039E-02  (-0.1286732E-01)
 number of electron     296.0000057 magnetization       0.2043671
 augmentation part       19.3168526 magnetization       0.1855388

 Broyden mixing:
  rms(total) = 0.58575E-01    rms(broyden)= 0.58573E-01
  rms(prec ) = 0.68161E-01
  weight for this iteration     100.00

 eigenvalues of (default mixing * dielectric matrix)
  average eigenvalue GAMMA=   1.2895
  2.5838  1.6644  1.6644  0.9357  0.7541  0.7541  0.6697

 Free energy of the ion-electron system (eV)
  ---------------------------------------------------
  alpha Z        PSCENC =       439.77293268
  Ewald energy   TEWEN  =     -8359.30127053
  -Hartree energ DENC   =     -6413.74123931
  -exchange      EXHF   =         0.00000000
  -V(xc)+E(xc)   XCENC  =       990.91542374
  PAW double counting   =      9961.10602284    -9836.56636169
  entropy T*S    EENTRO =        -0.00000000
  eigenvalues    EBANDS =     -2371.23468656
  atomic energy  EATOM  =     15019.72529475
  Solvation  Ediel_sol  =         0.00000000
  ---------------------------------------------------
  free energy    TOTEN  =      -569.32388408 eV

  energy without entropy =     -569.32388408  energy(sigma->0) =     -569.32388408


--------------------------------------------------------------------------------------------------------




----------------------------------------- Iteration    1(  11)  ---------------------------------------


    POTLOK:  cpu time    0.1128: real time    0.1128
    SETDIJ:  cpu time    0.0129: real time    0.0129
     EDDAV:  cpu time   45.3377: real time   45.3468
       DOS:  cpu time    0.0035: real time    0.0035
    CHARGE:  cpu time    1.1700: real time    1.1702
    MIXING:  cpu time    0.0021: real time    0.0022
    --------------------------------------------
      LOOP:  cpu time   46.6395: real time   46.6489

 eigenvalue-minimisations  : 11136
 total energy-change (2. order) : 0.1952796E-02  (-0.1745352E-02)
 number of electron     296.0000057 magnetization       0.0240743
 augmentation part       19.3193037 magnetization       0.0166566

 Broyden mixing:
  rms(total) = 0.21400E-01    rms(broyden)= 0.21399E-01
  rms(prec ) = 0.26370E-01
  weight for this iteration     100.00

 eigenvalues of (default mixing * dielectric matrix)
  average eigenvalue GAMMA=   1.3114
  2.7019  1.6996  1.6996  1.3270  0.8526  0.8526  0.7401  0.6179

 Free energy of the ion-electron system (eV)
  ---------------------------------------------------
  alpha Z        PSCENC =       439.77293268
  Ewald energy   TEWEN  =     -8359.30127053
  -Hartree energ DENC   =     -6408.53767805
  -exchange      EXHF   =         0.00000000
  -V(xc)+E(xc)   XCENC  =       990.49668637
  PAW double counting   =      9956.30415431    -9831.77884870
  entropy T*S    EENTRO =        -0.00000000
  eigenvalues    EBANDS =     -2376.00320211
  atomic energy  EATOM  =     15019.72529475
  Solvation  Ediel_sol  =         0.00000000
  ---------------------------------------------------
  free energy    TOTEN  =      -569.32193128 eV

  energy without entropy =     -569.32193128  energy(sigma->0) =     -569.32193128


--------------------------------------------------------------------------------------------------------




----------------------------------------- Iteration    1(  12)  ---------------------------------------


    POTLOK:  cpu time    0.1115: real time    0.1115
    SETDIJ:  cpu time    0.0129: real time    0.0129
     EDDAV:  cpu time   44.1024: real time   44.1117
       DOS:  cpu time    0.0037: real time    0.0037
    CHARGE:  cpu time    1.1562: real time    1.1565
    MIXING:  cpu time    0.0023: real time    0.0023
    --------------------------------------------
      LOOP:  cpu time   45.3896: real time   45.3992

 eigenvalue-minimisations  : 10800
 total energy-change (2. order) : 0.1235981E-02  (-0.5337298E-03)
 number of electron     296.0000057 magnetization       0.0016553
 augmentation part       19.3260636 magnetization       0.0016392

 Broyden mixing:
  rms(total) = 0.71796E-02    rms(broyden)= 0.71787E-02
  rms(prec ) = 0.85318E-02
  weight for this iteration     100.00

 eigenvalues of (default mixing * dielectric matrix)
  average eigenvalue GAMMA=   1.2927
  2.7713  1.8195  1.8195  1.1465  1.1465  0.8055  0.8055  0.6291  0.6907

 Free energy of the ion-electron system (eV)
  ---------------------------------------------------
  alpha Z        PSCENC =       439.77293268
  Ewald energy   TEWEN  =     -8359.30127053
  -Hartree energ DENC   =     -6404.26404731
  -exchange      EXHF   =         0.00000000
  -V(xc)+E(xc)   XCENC  =       990.20042845
  PAW double counting   =      9951.17581207    -9826.63535208
  entropy T*S    EENTRO =        -0.00000000
  eigenvalues    EBANDS =     -2379.99449334
  atomic energy  EATOM  =     15019.72529475
  Solvation  Ediel_sol  =         0.00000000
  ---------------------------------------------------
  free energy    TOTEN  =      -569.32069530 eV

  energy without entropy =     -569.32069530  energy(sigma->0) =     -569.32069530


--------------------------------------------------------------------------------------------------------




----------------------------------------- Iteration    1(  13)  ---------------------------------------


    POTLOK:  cpu time    0.1578: real time    0.1578
    SETDIJ:  cpu time    0.0129: real time    0.0129
     EDDAV:  cpu time   44.2887: real time   44.2969
       DOS:  cpu time    0.0035: real time    0.0035
    CHARGE:  cpu time    1.1647: real time    1.1648
    MIXING:  cpu time    0.0025: real time    0.0025
    --------------------------------------------
      LOOP:  cpu time   45.6306: real time   45.6390

 eigenvalue-minimisations  : 10752
 total energy-change (2. order) :-0.5569643E-04  (-0.6900834E-04)
 number of electron     296.0000057 magnetization      -0.0024873
 augmentation part       19.3257898 magnetization      -0.0026430

 Broyden mixing:
  rms(total) = 0.34529E-02    rms(broyden)= 0.34527E-02
  rms(prec ) = 0.44863E-02
  weight for this iteration     100.00

 eigenvalues of (default mixing * dielectric matrix)
  average eigenvalue GAMMA=   1.2734
  2.7985  1.8689  1.8689  1.2660  1.1593  0.8616  0.8079  0.8079  0.6474  0.6474

 Free energy of the ion-electron system (eV)
  ---------------------------------------------------
  alpha Z        PSCENC =       439.77293268
  Ewald energy   TEWEN  =     -8359.30127053
  -Hartree energ DENC   =     -6404.42377586
  -exchange      EXHF   =         0.00000000
  -V(xc)+E(xc)   XCENC  =       990.22317541
  PAW double counting   =      9952.39458711    -9827.86128512
  entropy T*S    EENTRO =        -0.00000000
  eigenvalues    EBANDS =     -2379.85040944
  atomic energy  EATOM  =     15019.72529475
  Solvation  Ediel_sol  =         0.00000000
  ---------------------------------------------------
  free energy    TOTEN  =      -569.32075100 eV

  energy without entropy =     -569.32075100  energy(sigma->0) =     -569.32075100


--------------------------------------------------------------------------------------------------------




----------------------------------------- Iteration    1(  14)  ---------------------------------------


    POTLOK:  cpu time    0.1159: real time    0.1159
    SETDIJ:  cpu time    0.0130: real time    0.0130
     EDDAV:  cpu time   44.1959: real time   44.2047
       DOS:  cpu time    0.0035: real time    0.0035
    CHARGE:  cpu time    1.1692: real time    1.1694
    MIXING:  cpu time    0.0027: real time    0.0027
    --------------------------------------------
      LOOP:  cpu time   45.5008: real time   45.5098

 eigenvalue-minimisations  : 10752
 total energy-change (2. order) :-0.7919278E-05  (-0.1874880E-04)
 number of electron     296.0000057 magnetization      -0.0023241
 augmentation part       19.3256156 magnetization      -0.0023765

 Broyden mixing:
  rms(total) = 0.17270E-02    rms(broyden)= 0.17269E-02
  rms(prec ) = 0.21956E-02
  weight for this iteration     100.00

 eigenvalues of (default mixing * dielectric matrix)
  average eigenvalue GAMMA=   1.3194
  2.8191  2.2415  1.7440  1.7440  1.1358  1.1358  0.8320  0.8320  0.7380  0.6717
  0.6197

 Free energy of the ion-electron system (eV)
  ---------------------------------------------------
  alpha Z        PSCENC =       439.77293268
  Ewald energy   TEWEN  =     -8359.30127053
  -Hartree energ DENC   =     -6404.24158694
  -exchange      EXHF   =         0.00000000
  -V(xc)+E(xc)   XCENC  =       990.21543049
  PAW double counting   =      9952.64294631    -9828.11589705
  entropy T*S    EENTRO =        -0.00000000
  eigenvalues    EBANDS =     -2380.01860863
  atomic energy  EATOM  =     15019.72529475
  Solvation  Ediel_sol  =         0.00000000
  ---------------------------------------------------
  free energy    TOTEN  =      -569.32075892 eV

  energy without entropy =     -569.32075892  energy(sigma->0) =     -569.32075892


--------------------------------------------------------------------------------------------------------




----------------------------------------- Iteration    1(  15)  ---------------------------------------


    POTLOK:  cpu time    0.1115: real time    0.1115
    SETDIJ:  cpu time    0.0131: real time    0.0131
     EDDAV:  cpu time   44.4266: real time   44.4362
       DOS:  cpu time    0.0038: real time    0.0038
    CHARGE:  cpu time    1.1599: real time    1.1602
    MIXING:  cpu time    0.0029: real time    0.0029
    --------------------------------------------
      LOOP:  cpu time   45.7182: real time   45.7282

 eigenvalue-minimisations  : 10800
 total energy-change (2. order) : 0.1965740E-04  (-0.5790630E-05)
 number of electron     296.0000057 magnetization      -0.0015293
 augmentation part       19.3259089 magnetization      -0.0014300

 Broyden mixing:
  rms(total) = 0.74290E-03    rms(broyden)= 0.74288E-03
  rms(prec ) = 0.89134E-03
  weight for this iteration     100.00

 eigenvalues of (default mixing * dielectric matrix)
  average eigenvalue GAMMA=   1.3196
  2.8445  2.5725  1.7896  1.7896  1.0998  1.0998  0.9958  0.8148  0.8148  0.7283
  0.6702  0.6154

 Free energy of the ion-electron system (eV)
  ---------------------------------------------------
  alpha Z        PSCENC =       439.77293268
  Ewald energy   TEWEN  =     -8359.30127053
  -Hartree energ DENC   =     -6403.96505060
  -exchange      EXHF   =         0.00000000
  -V(xc)+E(xc)   XCENC  =       990.20014376
  PAW double counting   =      9952.48558590    -9827.95956838
  entropy T*S    EENTRO =        -0.00000000
  eigenvalues    EBANDS =     -2380.27880683
  atomic energy  EATOM  =     15019.72529475
  Solvation  Ediel_sol  =         0.00000000
  ---------------------------------------------------
  free energy    TOTEN  =      -569.32073926 eV

  energy without entropy =     -569.32073926  energy(sigma->0) =     -569.32073926


--------------------------------------------------------------------------------------------------------




----------------------------------------- Iteration    1(  16)  ---------------------------------------


    POTLOK:  cpu time    0.1137: real time    0.1137
    SETDIJ:  cpu time    0.0131: real time    0.0131
     EDDAV:  cpu time   44.5308: real time   44.5394
       DOS:  cpu time    0.0035: real time    0.0035
    CHARGE:  cpu time    1.1681: real time    1.1684
    MIXING:  cpu time    0.0029: real time    0.0029
    --------------------------------------------
      LOOP:  cpu time   45.8324: real time   45.8414

 eigenvalue-minimisations  : 10752
 total energy-change (2. order) :-0.4873618E-06  (-0.1236991E-05)
 number of electron     296.0000057 magnetization      -0.0003403
 augmentation part       19.3259854 magnetization      -0.0002934

 Broyden mixing:
  rms(total) = 0.37789E-03    rms(broyden)= 0.37788E-03
  rms(prec ) = 0.46381E-03
  weight for this iteration     100.00

 eigenvalues of (default mixing * dielectric matrix)
  average eigenvalue GAMMA=   1.3250
  2.8832  2.6877  1.7487  1.7487  1.4996  1.1005  1.1005  0.8394  0.8394  0.8067
[...]
   -.683E+01 -.250E+02 -.291E+02   0.908E+01 0.290E+02 0.339E+02   -.225E+01 -.405E+01 -.477E+01   -.792E-04 0.105E-03 -.831E-04
   0.683E+01 0.250E+02 -.291E+02   -.908E+01 -.290E+02 0.339E+02   0.225E+01 0.405E+01 -.477E+01   0.792E-04 -.105E-03 -.832E-04
   -.576E+01 0.208E+02 0.384E+02   0.766E+01 -.235E+02 -.444E+02   -.189E+01 0.274E+01 0.597E+01   -.111E-03 -.103E-03 0.637E-04
   0.576E+01 -.208E+02 0.384E+02   -.766E+01 0.235E+02 -.444E+02   0.189E+01 -.274E+01 0.597E+01   0.111E-03 0.103E-03 0.638E-04
   -.576E+01 -.208E+02 0.384E+02   0.766E+01 0.235E+02 -.444E+02   -.189E+01 -.274E+01 0.597E+01   -.111E-03 0.103E-03 0.638E-04
   0.576E+01 0.208E+02 0.384E+02   -.766E+01 -.235E+02 -.444E+02   0.189E+01 0.274E+01 0.597E+01   0.111E-03 -.103E-03 0.637E-04
   0.319E+02 0.451E+02 -.196E+01   -.312E+02 -.457E+02 0.203E+01   -.641E+00 0.642E+00 -.713E-01   -.509E-03 -.709E-03 -.194E-03
   -.319E+02 -.451E+02 -.196E+01   0.312E+02 0.457E+02 0.203E+01   0.641E+00 -.642E+00 -.713E-01   0.509E-03 0.709E-03 -.194E-03
   0.319E+02 -.451E+02 -.196E+01   -.312E+02 0.457E+02 0.203E+01   -.641E+00 -.642E+00 -.713E-01   -.509E-03 0.709E-03 -.194E-03
   -.319E+02 0.451E+02 -.196E+01   0.312E+02 -.457E+02 0.203E+01   0.641E+00 0.642E+00 -.713E-01   0.509E-03 -.709E-03 -.194E-03
 -----------------------------------------------------------------------------------------------
   0.145E-03 0.607E-05 0.192E+02   -.497E-13 -.135E-12 0.220E-12   -.344E-14 0.888E-15 -.192E+02   -.179E-08 0.225E-09 -.150E-02
 
 
 POSITION                                       TOTAL-FORCE (eV/Angst)
 -----------------------------------------------------------------------------------
      8.10029      8.47690      5.86893        -0.000526      0.000265     -0.000520
      0.02444      0.32819      0.00538         0.000526     -0.000265     -0.000520
      4.03792      4.73074      0.00538        -0.000526     -0.000265     -0.000520
      4.08681      4.07436      5.86893         0.000526      0.000265     -0.000520
      0.77782      1.52265      5.16576         0.001732      0.002519     -0.002615
      7.34691      7.28244     11.02931        -0.001732     -0.002519     -0.002615
      4.84019      2.87989     11.02931         0.001732     -0.002519     -0.002615
      3.28455      5.92520      5.16576        -0.001732      0.002519     -0.002615
      2.41045      3.06783      5.14606         0.003022      0.002675      0.000022
      5.71428      5.73726     11.00961        -0.003022     -0.002675      0.000022
      6.47282      1.33471     11.00961         0.003022     -0.002675      0.000022
      1.65191      7.47038      5.14606        -0.003022      0.002675      0.000022
      6.40522      0.63648      6.61895         0.001028      0.000345     -0.000506
      1.71952      8.16861      0.75540        -0.001028     -0.000345     -0.000506
      2.34285      3.76607      0.75540         0.001028     -0.000345     -0.000506
      5.78188      5.03903      6.61895        -0.001028      0.000345     -0.000506
      4.84164      2.25670      6.62417         0.002115      0.001027      0.000401
      3.28309      6.54840      0.76062        -0.002115     -0.001027      0.000401
      0.77928      2.14585      0.76062         0.002115     -0.001027      0.000401
      7.34545      6.65924      6.62417        -0.002115      0.001027      0.000401
      7.10272      8.33088      4.00250        -0.001368     -0.000056      0.001067
      1.02201      0.47421      9.86605         0.001368      0.000056      0.001067
      3.04035      4.87676      9.86605        -0.001368      0.000056      0.001067
      5.08438      3.92834      4.00250         0.001368     -0.000056      0.001067
      7.16130      0.01402      1.81069         0.000584     -0.003362      0.001114
      0.96343      8.79107      7.67424        -0.000584      0.003362      0.001114
      3.09893      4.38852      7.67424         0.000584      0.003362      0.001114
      5.02580      4.41657      1.81069        -0.000584     -0.003362      0.001114
      1.90131      1.99069      5.55684        -0.000900     -0.002589      0.000942
      6.22342      6.81440     11.42039         0.000900      0.002589      0.000942
      5.96368      2.41185     11.42039        -0.000900      0.002589      0.000942
      2.16105      6.39324      5.55684         0.000900     -0.002589      0.000942
      5.82843      1.63167      6.10857        -0.000533      0.000786     -0.000222
      2.29630      7.17342      0.24502         0.000533     -0.000786     -0.000222
      1.76606      2.77087      0.24502        -0.000533     -0.000786     -0.000222
      6.35867      6.03422      6.10857         0.000533      0.000786     -0.000222
      7.70747      8.69906      2.94187         0.000876     -0.000321     -0.003328
      0.41726      0.10603      8.80542        -0.000876      0.000321     -0.003328
      3.64511      4.50858      8.80542         0.000876      0.000321     -0.003328
      4.47963      4.29651      2.94187        -0.000876     -0.000321     -0.003328
      0.37119      4.61694      3.33855         0.000160      0.000863     -0.000716
      7.75354      4.18815      9.20210        -0.000160     -0.000863     -0.000716
      4.43356      8.59070      9.20210         0.000160     -0.000863     -0.000716
      3.69117      0.21440      3.33855        -0.000160      0.000863     -0.000716
      8.11342      5.54007      2.20591         0.001066      0.000251      0.000499
      0.01131      3.26502      8.06946        -0.001066     -0.000251      0.000499
      4.05106      7.66757      8.06946         0.001066     -0.000251      0.000499
      4.07368      1.13753      2.20591        -0.001066      0.000251      0.000499
      2.45055      1.38868      6.30572        -0.000707     -0.000876      0.000148
      5.67418      7.41641      0.44217         0.000707      0.000876      0.000148
      6.51291      3.01386      0.44217        -0.000707      0.000876      0.000148
      1.61182      5.79123      6.30572         0.000707     -0.000876      0.000148
      6.18700      2.00501      5.12885         0.000451      0.002870     -0.000720
      1.93773      6.80008     10.99240        -0.000451     -0.002870     -0.000720
      2.12464      2.39753     10.99240         0.000451     -0.002870     -0.000720
      6.00009      6.40756      5.12885        -0.000451      0.002870     -0.000720
      0.66246      0.12562      3.02500         0.000263      0.001611     -0.000223
      7.46227      8.67947      8.88855        -0.000263     -0.001611     -0.000223
      4.72482      4.27693      8.88855         0.000263     -0.001611     -0.000223
      3.39991      4.52817      3.02500        -0.000263      0.001611     -0.000223
      0.05980      5.01451      4.31207         0.000425     -0.000809      0.002264
      8.06494      3.79059     10.17562        -0.000425      0.000809      0.002264
      4.12216      8.19314     10.17562         0.000425      0.000809      0.002264
      4.00257      0.61196      4.31207        -0.000425     -0.000809      0.002264
      1.45038      4.45085      3.37940         0.000308     -0.000207      0.001394
      6.67435      4.35424      9.24295        -0.000308      0.000207      0.001394
      5.51274      8.75679      9.24295         0.000308      0.000207      0.001394
      2.61199      0.04830      3.37940        -0.000308     -0.000207      0.001394
      0.23746      5.09288      1.23588         0.000934      0.000459     -0.000258
      7.88727      3.71221      7.09943        -0.000934     -0.000459     -0.000258
      4.29982      8.11476      7.09943         0.000934     -0.000459     -0.000258
      3.82491      0.69034      1.23588        -0.000934      0.000459     -0.000258
      0.56409      6.46622      2.29209        -0.000515      0.000363      0.000961
      7.56065      2.33888      8.15564         0.000515     -0.000363      0.000961
      4.62645      6.74143      8.15564        -0.000515     -0.000363      0.000961
      3.49828      2.06367      2.29209         0.000515      0.000363      0.000961
      7.04522      5.78003      2.21560        -0.001259     -0.000257      0.001171
      1.07951      3.02506      8.07915         0.001259      0.000257      0.001171
      2.98285      7.42761      8.07915        -0.001259      0.000257      0.001171
      5.14188      1.37748      2.21560         0.001259     -0.000257      0.001171
      6.83630      3.36228      3.27209         0.000379     -0.000865     -0.000625
      1.28843      5.44282      9.13564        -0.000379      0.000865     -0.000625
      2.77393      1.04027      9.13564         0.000379      0.000865     -0.000625
      5.35080      7.76483      3.27209        -0.000379     -0.000865     -0.000625
      0.09619      2.62387      3.95418         0.001287     -0.000687      0.001675
      8.02854      6.18122      9.81773        -0.001287      0.000687      0.001675
      4.15855      1.77868      9.81773         0.001287      0.000687      0.001675
      3.96618      7.02642      3.95418        -0.001287     -0.000687      0.001675
      0.02663      2.84822      2.27412         0.001846      0.000744     -0.002742
      8.09810      5.95687      8.13767        -0.001846     -0.000744     -0.002742
      4.08900      1.55432      8.13767         0.001846     -0.000744     -0.002742
      4.03573      7.25077      2.27412        -0.001846      0.000744     -0.002742
      7.86998      3.26750      3.19466        -0.001129      0.001294      0.000819
      0.25475      5.53759      9.05821         0.001129     -0.001294      0.000819
      3.80761      1.13505      9.05821        -0.001129     -0.001294      0.000819
      4.31712      7.67005      3.19466         0.001129      0.001294      0.000819
 -----------------------------------------------------------------------------------
    total drift:                                0.000145      0.000006     -0.011455


--------------------------------------------------------------------------------------------------------



  FREE ENERGIE OF THE ION-ELECTRON SYSTEM (eV)
  ---------------------------------------------------
  free  energy   TOTEN  =      -575.63090385 eV

  energy  without entropy=     -575.63090385  energy(sigma->0) =     -575.63090385
 


--------------------------------------------------------------------------------------------------------


    POTLOK:  cpu time    0.1915: real time    0.1920


--------------------------------------------------------------------------------------------------------


     LOOP+:  cpu time 1248.8407: real time 1249.1541
    4ORBIT:  cpu time    0.0000: real time    0.0000
 


 total charge     
 
# of ion     s       p       d       tot
----------------------------------------
  1        0.126   0.147   0.063   0.336
  2        0.126   0.147   0.063   0.336
  3        0.126   0.147   0.063   0.336
  4        0.126   0.147   0.063   0.336
  5        1.566   3.589   0.000   5.156
  6        1.566   3.589   0.000   5.156
  7        1.566   3.589   0.000   5.156
  8        1.566   3.589   0.000   5.156
  9        1.568   3.597   0.000   5.165
 10        1.568   3.597   0.000   5.165
 11        1.568   3.598   0.000   5.165
 12        1.568   3.598   0.000   5.165
 13        1.570   3.595   0.000   5.164
 14        1.570   3.595   0.000   5.164
 15        1.570   3.595   0.000   5.164
 16        1.570   3.595   0.000   5.164
 17        1.566   3.590   0.000   5.156
 18        1.566   3.590   0.000   5.156
 19        1.566   3.590   0.000   5.156
 20        1.566   3.590   0.000   5.156
 21        1.567   3.584   0.000   5.152
 22        1.567   3.584   0.000   5.152
 23        1.567   3.584   0.000   5.152
 24        1.567   3.584   0.000   5.152
 25        1.569   3.596   0.000   5.166
 26        1.569   3.596   0.000   5.166
 27        1.569   3.596   0.000   5.166
 28        1.569   3.596   0.000   5.166
 29        0.874   1.705   0.000   2.579
 30        0.874   1.705   0.000   2.579
 31        0.874   1.705   0.000   2.579
 32        0.874   1.705   0.000   2.579
 33        0.873   1.708   0.000   2.582
 34        0.873   1.708   0.000   2.582
 35        0.873   1.708   0.000   2.582
 36        0.873   1.708   0.000   2.582
 37        0.875   1.709   0.000   2.584
 38        0.875   1.709   0.000   2.584
 39        0.875   1.709   0.000   2.584
 40        0.875   1.709   0.000   2.584
 41        0.835   1.753   0.000   2.588
 42        0.835   1.753   0.000   2.588
 43        0.835   1.753   0.000   2.588
 44        0.835   1.753   0.000   2.588
 45        0.841   1.813   0.000   2.654
 46        0.841   1.813   0.000   2.654
 47        0.841   1.813   0.000   2.654
 48        0.841   1.813   0.000   2.654
 49        0.643   0.045   0.000   0.688
 50        0.643   0.045   0.000   0.688
 51        0.643   0.045   0.000   0.688
 52        0.643   0.045   0.000   0.688
 53        0.646   0.044   0.000   0.690
 54        0.646   0.044   0.000   0.690
 55        0.646   0.044   0.000   0.690
 56        0.646   0.044   0.000   0.690
 57        0.643   0.045   0.000   0.689
 58        0.643   0.045   0.000   0.689
 59        0.643   0.045   0.000   0.689
 60        0.643   0.045   0.000   0.689
 61        0.651   0.046   0.000   0.697
 62        0.651   0.046   0.000   0.697
 63        0.651   0.046   0.000   0.697
 64        0.651   0.046   0.000   0.697
 65        0.650   0.049   0.000   0.699
 66        0.650   0.049   0.000   0.699
 67        0.650   0.049   0.000   0.699
 68        0.650   0.049   0.000   0.699
 69        0.642   0.046   0.000   0.688
 70        0.642   0.046   0.000   0.688
 71        0.642   0.046   0.000   0.688
 72        0.642   0.046   0.000   0.688
 73        0.643   0.047   0.000   0.690
 74        0.643   0.047   0.000   0.690
 75        0.643   0.047   0.000   0.690
 76        0.643   0.047   0.000   0.690
 77        0.645   0.046   0.000   0.691
 78        0.645   0.046   0.000   0.691
 79        0.645   0.046   0.000   0.691
 80        0.645   0.046   0.000   0.691
 81        0.600   0.084   0.000   0.685
 82        0.600   0.084   0.000   0.685
 83        0.600   0.084   0.000   0.685
 84        0.600   0.084   0.000   0.685
 85        0.581   0.086   0.000   0.667
 86        0.581   0.086   0.000   0.667
 87        0.581   0.086   0.000   0.667
 88        0.581   0.086   0.000   0.667
 89        0.588   0.085   0.000   0.673
 90        0.588   0.085   0.000   0.673
 91        0.588   0.085   0.000   0.673
 92        0.588   0.085   0.000   0.673
 93        1.219   2.771   0.000   3.990
 94        1.219   2.771   0.000   3.990
 95        1.219   2.771   0.000   3.990
 96        1.219   2.771   0.000   3.990
------------------------------------------------
tot       87.928 135.132   0.250 223.311
 


 magnetization (x)
 
# of ion     s       p       d       tot
----------------------------------------
  1        0.000   0.000   0.000   0.000
  2        0.000   0.000   0.000   0.000
  3        0.000   0.000   0.000   0.000
  4        0.000   0.000   0.000   0.000
  5       -0.000  -0.000   0.000  -0.000
  6       -0.000  -0.000   0.000  -0.000
  7       -0.000  -0.000   0.000  -0.000
  8       -0.000  -0.000   0.000  -0.000
  9       -0.000  -0.000   0.000  -0.000
 10       -0.000  -0.000   0.000  -0.000
 11       -0.000  -0.000   0.000  -0.000
 12       -0.000  -0.000   0.000  -0.000
 13       -0.000  -0.000   0.000  -0.000
 14       -0.000  -0.000   0.000  -0.000
 15       -0.000  -0.000   0.000  -0.000
 16       -0.000  -0.000   0.000  -0.000
 17       -0.000  -0.000   0.000  -0.000
 18       -0.000  -0.000   0.000  -0.000
 19       -0.000  -0.000   0.000  -0.000
 20       -0.000  -0.000   0.000  -0.000
 21       -0.000  -0.000   0.000  -0.000
 22       -0.000  -0.000   0.000  -0.000
 23       -0.000  -0.000   0.000  -0.000
 24       -0.000  -0.000   0.000  -0.000
 25       -0.000  -0.000   0.000  -0.000
 26       -0.000  -0.000   0.000  -0.000
 27       -0.000  -0.000   0.000  -0.000
 28       -0.000  -0.000   0.000  -0.000
 29       -0.000   0.000   0.000  -0.000
 30       -0.000   0.000   0.000  -0.000
 31       -0.000   0.000   0.000  -0.000
 32       -0.000   0.000   0.000  -0.000
 33       -0.000   0.000   0.000   0.000
 34       -0.000   0.000   0.000   0.000
 35       -0.000   0.000   0.000   0.000
 36       -0.000   0.000   0.000   0.000
 37       -0.000   0.000   0.000  -0.000
 38       -0.000   0.000   0.000  -0.000
 39       -0.000   0.000   0.000  -0.000
 40       -0.000   0.000   0.000  -0.000
 41       -0.000  -0.000   0.000  -0.000
 42       -0.000  -0.000   0.000  -0.000
 43       -0.000  -0.000   0.000  -0.000
 44       -0.000  -0.000   0.000  -0.000
 45       -0.000  -0.000   0.000  -0.000
 46       -0.000  -0.000   0.000  -0.000
 47       -0.000  -0.000   0.000  -0.000
 48       -0.000  -0.000   0.000  -0.000
 49        0.000  -0.000   0.000  -0.000
 50        0.000  -0.000   0.000  -0.000
 51        0.000  -0.000   0.000  -0.000
 52        0.000  -0.000   0.000  -0.000
 53        0.000  -0.000   0.000  -0.000
 54        0.000  -0.000   0.000  -0.000
 55        0.000  -0.000   0.000  -0.000
 56        0.000  -0.000   0.000  -0.000
 57       -0.000  -0.000   0.000  -0.000
 58       -0.000  -0.000   0.000  -0.000
 59       -0.000  -0.000   0.000  -0.000
 60       -0.000  -0.000   0.000  -0.000
 61        0.000  -0.000   0.000  -0.000
 62        0.000  -0.000   0.000  -0.000
 63        0.000  -0.000   0.000  -0.000
 64        0.000  -0.000   0.000  -0.000
 65       -0.000  -0.000   0.000  -0.000
 66       -0.000  -0.000   0.000  -0.000
 67       -0.000  -0.000   0.000  -0.000
 68       -0.000  -0.000   0.000  -0.000
 69       -0.000  -0.000   0.000  -0.000
 70       -0.000  -0.000   0.000  -0.000
 71       -0.000  -0.000   0.000  -0.000
 72       -0.000  -0.000   0.000  -0.000
 73       -0.000  -0.000   0.000  -0.000
 74       -0.000  -0.000   0.000  -0.000
 75       -0.000  -0.000   0.000  -0.000
 76       -0.000  -0.000   0.000  -0.000
 77        0.000  -0.000   0.000  -0.000
 78        0.000  -0.000   0.000  -0.000
 79        0.000  -0.000   0.000  -0.000
 80        0.000  -0.000   0.000  -0.000
 81       -0.000  -0.000   0.000  -0.000
 82       -0.000  -0.000   0.000  -0.000
 83       -0.000  -0.000   0.000  -0.000
 84       -0.000  -0.000   0.000  -0.000
 85       -0.000  -0.000   0.000  -0.000
 86       -0.000  -0.000   0.000  -0.000
 87       -0.000  -0.000   0.000  -0.000
 88       -0.000  -0.000   0.000  -0.000
 89       -0.000  -0.000   0.000  -0.000
 90       -0.000  -0.000   0.000  -0.000
 91       -0.000  -0.000   0.000  -0.000
 92       -0.000  -0.000   0.000  -0.000
 93       -0.000  -0.000   0.000  -0.000
 94       -0.000  -0.000   0.000  -0.000
 95       -0.000  -0.000   0.000  -0.000
 96       -0.000  -0.000   0.000  -0.000
------------------------------------------------
tot       -0.000  -0.000   0.000  -0.000
 

 total amount of memory used by VASP on root node   343073. kBytes
========================================================================

   base      :      30000. kBytes
   nonl-proj :     201228. kBytes
   fftplans  :       3541. kBytes
   grid      :      51451. kBytes
   one-center:       1557. kBytes
   wavefun   :      55296. kBytes
 
  
  
 General timing and accounting informations for this job:
 ========================================================
  
                  Total CPU time used (sec):     1276.094
                            User time (sec):     1265.146
                          System time (sec):       10.948
                         Elapsed time (sec):     1277.504
  
                   Maximum memory used (kb):      701060.
                   Average memory used (kb):           0.
  
                          Minor page faults:      1168761
                          Major page faults:            0
                 Voluntary context switches:       163687
