 vasp.5.4.1 24Jun15 (build Aug 03 2015 13:31:17) complex                        
  
 executed on      LinuxIFC_2015xe date 2021.08.25  14:10:16
 running on   48 total cores
 distrk:  each k-point on   48 cores,    1 groups
 distr:  one band on NCORES_PER_BAND=   1 cores,   48 groups


--------------------------------------------------------------------------------------------------------


 INCAR:
 POTCAR:    PAW_PBE Mn_pv 02Aug2007               
 POTCAR:   PAW_PBE O 08Apr2002                    
 POTCAR:   PAW_PBE C 08Apr2002                    
 POTCAR:   PAW_PBE H 15Jun2001                    
 POTCAR:   PAW_PBE N 08Apr2002                    

 ----------------------------------------------------------------------------- 
|                                                                             |
|           W    W    AA    RRRRR   N    N  II  N    N   GGGG   !!!           |
|           W    W   A  A   R    R  NN   N  II  NN   N  G    G  !!!           |
|           W    W  A    A  R    R  N N  N  II  N N  N  G       !!!           |
|           W WW W  AAAAAA  RRRRR   N  N N  II  N  N N  G  GGG   !            |
|           WW  WW  A    A  R   R   N   NN  II  N   NN  G    G                |
|           W    W  A    A  R    R  N    N  II  N    N   GGGG   !!!           |
|                                                                             |
|      For optimal performance we recommend to set                            |
|        NCORE= 4 - approx SQRT( number of cores)                             |
|      NCORE specifies how many cores store one orbital (NPAR=cpu/NCORE).     |
|      This setting can  greatly improve the performance of VASP for DFT.     |
|      The default, NPAR=number of cores might be grossly inefficient         |
|      on modern multi-core architectures or massively parallel machines.     |
|      Do your own testing !!!!                                               |
|      Unfortunately you need to use the default for GW and RPA calculations. |
|      (for HF NCORE is supported but not extensively tested yet)             |
|                                                                             |
 ----------------------------------------------------------------------------- 

 POTCAR:    PAW_PBE Mn_pv 02Aug2007               
   VRHFIN =Mn: 3p4s3d                                                           
   LEXCH  = PE                                                                  
   EATOM  =  2025.2664 eV,  148.8529 Ry                                         
                                                                                
   TITEL  = PAW_PBE Mn_pv 02Aug2007                                             
   LULTRA =        F    use ultrasoft PP ?                                      
   IUNSCR =        1    unscreen: 0-lin 1-nonlin 2-no                           
   RPACOR =    2.080    partial core radius                                     
   POMASS =   54.938; ZVAL   =   13.000    mass and valenz                      
   RCORE  =    2.300    outmost cutoff radius                                   
   RWIGS  =    2.500; RWIGS  =    1.323    wigner-seitz radius (au A)           
   ENMAX  =  269.864; ENMIN  =  202.398 eV                                      
   ICORE  =        3    local potential                                         
   LCOR   =        T    correct aug charges                                     
   LPAW   =        T    paw PP                                                  
   EAUG   =  569.085                                                            
   DEXC   =    0.000                                                            
   RMAX   =    2.343    core radius for proj-oper                               
   RAUG   =    1.300    factor for augmentation sphere                          
   RDEP   =    2.338    radius for radial grids                                 
   RDEPT  =    1.798    core radius for aug-charge                              
                                                                                
   Atomic configuration                                                         
    8 entries                                                                   
     n  l   j            E        occ.                                          
     1  0  0.50     -6424.8287   2.0000                                         
     2  0  0.50      -739.1154   2.0000                                         
     2  1  1.50      -625.3949   6.0000                                         
     3  0  0.50       -81.6100   2.0000                                         
     3  1  1.50       -50.4667   6.0000                                         
     3  2  2.50        -3.3745   6.0000                                         
     4  0  0.50        -4.1331   1.0000                                         
     4  3  2.50        -1.3606   0.0000                                         
   Description                                                                  
     l       E           TYP  RCUT    TYP  RCUT                                 
     1    -50.4666628     23  2.000                                             
     1     -1.3605826     23  2.000                                             
     2     -3.3744729     23  2.300                                             
     2     -4.7350555     23  2.300                                             
     0     -4.1331431     23  2.300                                             
     0      7.6656591     23  2.300                                             
     3      9.5240782     23  2.300                                             
  local pseudopotential read in
  partial core-charges read in
  partial kinetic energy density read in
  atomic valenz-charges read in
  non local Contribution for L=           1  read in
    real space projection operators read in
  non local Contribution for L=           1  read in
    real space projection operators read in
  non local Contribution for L=           2  read in
    real space projection operators read in
  non local Contribution for L=           2  read in
    real space projection operators read in
  non local Contribution for L=           0  read in
    real space projection operators read in
  non local Contribution for L=           0  read in
    real space projection operators read in
    PAW grid and wavefunctions read in
 
   number of l-projection  operators is LMAX  =           6
   number of lm-projection operators is LMMAX =          18
 
 POTCAR:   PAW_PBE O 08Apr2002                    
   VRHFIN =O: s2p4                                                              
   LEXCH  = PE                                                                  
   EATOM  =   432.3788 eV,   31.7789 Ry                                         
                                                                                
   TITEL  = PAW_PBE O 08Apr2002                                                 
   LULTRA =        F    use ultrasoft PP ?                                      
   IUNSCR =        0    unscreen: 0-lin 1-nonlin 2-no                           
   RPACOR =     .000    partial core radius                                     
   POMASS =   16.000; ZVAL   =    6.000    mass and valenz                      
   RCORE  =    1.520    outmost cutoff radius                                   
   RWIGS  =    1.550; RWIGS  =     .820    wigner-seitz radius (au A)           
   ENMAX  =  400.000; ENMIN  =  300.000 eV                                      
   ICORE  =        2    local potential                                         
   LCOR   =        T    correct aug charges                                     
   LPAW   =        T    paw PP                                                  
   EAUG   =  605.392                                                            
   DEXC   =     .000                                                            
   RMAX   =    2.264    core radius for proj-oper                               
   RAUG   =    1.300    factor for augmentation sphere                          
   RDEP   =    1.550    radius for radial grids                                 
   QCUT   =   -5.520; QGAM   =   11.041    optimization parameters              
                                                                                
   Description                                                                  
     l     E      TYP  RCUT    TYP  RCUT                                        
     0   .000     23  1.200                                                     
     0  -.700     23  1.200                                                     
     1   .000     23  1.520                                                     
     1   .600     23  1.520                                                     
     2   .000      7  1.500                                                     
  local pseudopotential read in
  atomic valenz-charges read in
  non local Contribution for L=           0  read in
    real space projection operators read in
  non local Contribution for L=           0  read in
    real space projection operators read in
  non local Contribution for L=           1  read in
    real space projection operators read in
  non local Contribution for L=           1  read in
    real space projection operators read in
    PAW grid and wavefunctions read in
 
   number of l-projection  operators is LMAX  =           4
   number of lm-projection operators is LMMAX =           8
 
 POTCAR:   PAW_PBE C 08Apr2002                    
   VRHFIN =C: s2p2                                                              
   LEXCH  = PE                                                                  
   EATOM  =   147.1560 eV,   10.8157 Ry                                         
                                                                                
   TITEL  = PAW_PBE C 08Apr2002                                                 
   LULTRA =        F    use ultrasoft PP ?                                      
   IUNSCR =        0    unscreen: 0-lin 1-nonlin 2-no                           
   RPACOR =     .000    partial core radius                                     
   POMASS =   12.011; ZVAL   =    4.000    mass and valenz                      
   RCORE  =    1.500    outmost cutoff radius                                   
   RWIGS  =    1.630; RWIGS  =     .863    wigner-seitz radius (au A)           
   ENMAX  =  400.000; ENMIN  =  300.000 eV                                      
   ICORE  =        2    local potential                                         
   LCOR   =        T    correct aug charges                                     
   LPAW   =        T    paw PP                                                  
   EAUG   =  644.873                                                            
   DEXC   =     .000                                                            
   RMAX   =    2.266    core radius for proj-oper                               
   RAUG   =    1.300    factor for augmentation sphere                          
   RDEP   =    1.501    radius for radial grids                                 
   RDEPT  =    1.300    core radius for aug-charge                              
   QCUT   =   -5.516; QGAM   =   11.032    optimization parameters              
                                                                                
   Description                                                                  
     l     E      TYP  RCUT    TYP  RCUT                                        
     0   .000     23  1.200                                                     
     0   .000     23  1.200                                                     
     1   .000     23  1.500                                                     
     1  2.500     23  1.500                                                     
     2   .000      7  1.500                                                     
  local pseudopotential read in
  atomic valenz-charges read in
  non local Contribution for L=           0  read in
    real space projection operators read in
  non local Contribution for L=           0  read in
    real space projection operators read in
  non local Contribution for L=           1  read in
    real space projection operators read in
  non local Contribution for L=           1  read in
    real space projection operators read in
    PAW grid and wavefunctions read in
 
   number of l-projection  operators is LMAX  =           4
   number of lm-projection operators is LMMAX =           8
 
 POTCAR:   PAW_PBE H 15Jun2001                    
   VRHFIN =H: ultrasoft test                                                    
   LEXCH  = PE                                                                  
   EATOM  =    12.4884 eV,     .9179 Ry                                         
                                                                                
   TITEL  = PAW_PBE H 15Jun2001                                                 
   LULTRA =        F    use ultrasoft PP ?                                      
   IUNSCR =        0    unscreen: 0-lin 1-nonlin 2-no                           
   RPACOR =     .000    partial core radius                                     
   POMASS =    1.000; ZVAL   =    1.000    mass and valenz                      
   RCORE  =    1.100    outmost cutoff radius                                   
   RWIGS  =     .700; RWIGS  =     .370    wigner-seitz radius (au A)           
   ENMAX  =  250.000; ENMIN  =  200.000 eV                                      
   RCLOC  =     .701    cutoff for local pot                                    
   LCOR   =        T    correct aug charges                                     
   LPAW   =        T    paw PP                                                  
   EAUG   =  400.000                                                            
   RMAX   =    2.174    core radius for proj-oper                               
   RAUG   =    1.200    factor for augmentation sphere                          
   RDEP   =    1.112    radius for radial grids                                 
   QCUT   =   -5.749; QGAM   =   11.498    optimization parameters              
                                                                                
   Description                                                                  
     l     E      TYP  RCUT    TYP  RCUT                                        
     0   .000     23  1.100                                                     
     0   .500     23  1.100                                                     
     1  -.300     23  1.100                                                     
  local pseudopotential read in
  atomic valenz-charges read in
  non local Contribution for L=           0  read in
    real space projection operators read in
  non local Contribution for L=           0  read in
    real space projection operators read in
  non local Contribution for L=           1  read in
    real space projection operators read in
    PAW grid and wavefunctions read in
 
   number of l-projection  operators is LMAX  =           3
   number of lm-projection operators is LMMAX =           5
 
 POTCAR:   PAW_PBE N 08Apr2002                    
   VRHFIN =N: s2p3                                                              
   LEXCH  = PE                                                                  
   EATOM  =   264.5486 eV,   19.4438 Ry                                         
                                                                                
   TITEL  = PAW_PBE N 08Apr2002                                                 
   LULTRA =        F    use ultrasoft PP ?                                      
   IUNSCR =        0    unscreen: 0-lin 1-nonlin 2-no                           
   RPACOR =     .000    partial core radius                                     
   POMASS =   14.001; ZVAL   =    5.000    mass and valenz                      
   RCORE  =    1.500    outmost cutoff radius                                   
   RWIGS  =    1.400; RWIGS  =     .741    wigner-seitz radius (au A)           
   ENMAX  =  400.000; ENMIN  =  300.000 eV                                      
   ICORE  =        2    local potential                                         
   LCOR   =        T    correct aug charges                                     
   LPAW   =        T    paw PP                                                  
   EAUG   =  627.112                                                            
   DEXC   =     .000                                                            
   RMAX   =    2.247    core radius for proj-oper                               
   RAUG   =    1.300    factor for augmentation sphere                          
   RDEP   =    1.514    radius for radial grids                                 
   QCUT   =   -5.562; QGAM   =   11.124    optimization parameters              
                                                                                
   Description                                                                  
     l     E      TYP  RCUT    TYP  RCUT                                        
     0   .000     23  1.200                                                     
     0   .000     23  1.200                                                     
     1   .000     23  1.500                                                     
     1   .700     23  1.500                                                     
     2   .000      7  1.500                                                     
  local pseudopotential read in
  atomic valenz-charges read in
  non local Contribution for L=           0  read in
    real space projection operators read in
  non local Contribution for L=           0  read in
    real space projection operators read in
  non local Contribution for L=           1  read in
    real space projection operators read in
  non local Contribution for L=           1  read in
    real space projection operators read in
    PAW grid and wavefunctions read in
 
   number of l-projection  operators is LMAX  =           4
   number of lm-projection operators is LMMAX =           8
 
 Optimization of the real space projectors (new method)

 maximal supplied QI-value         = 16.25
 optimisation between [QCUT,QGAM] = [ 13.49, 33.80] = [ 50.95,319.98] Ry 
 Optimized for a Real-space Cutoff    1.23 Angstroem

   l    n(q)    QCUT    max X(q) W(low)/X(q) W(high)/X(q)  e(spline) 
   1     12    13.489     3.658    0.95E-04    0.21E-03    0.14E-04
   1     12    13.489     5.612    0.18E-03    0.41E-03    0.27E-04
   2     12    13.489    55.373    0.32E-03    0.64E-04    0.72E-05
   2     12    13.489    50.863    0.33E-03    0.67E-04    0.74E-05
   0     13    13.489    79.536    0.81E-04    0.26E-04    0.11E-04
   0     13    13.489    38.668    0.75E-04    0.24E-04    0.96E-05
 Optimization of the real space projectors (new method)

 maximal supplied QI-value         = 24.76
 optimisation between [QCUT,QGAM] = [ 13.37, 33.67] = [ 50.04,317.41] Ry 
 Optimized for a Real-space Cutoff    0.86 Angstroem

   l    n(q)    QCUT    max X(q) W(low)/X(q) W(high)/X(q)  e(spline) 
   0      9    13.368     4.192    0.39E-04    0.26E-04    0.26E-07
   0      9    13.368     8.473    0.36E-03    0.26E-03    0.13E-06
   1      8    13.368     2.474    0.59E-04    0.25E-04    0.14E-07
   1      8    13.368     3.912    0.29E-03    0.14E-03    0.61E-07
 Optimization of the real space projectors (new method)

 maximal supplied QI-value         = 25.13
 optimisation between [QCUT,QGAM] = [ 13.32, 33.68] = [ 49.69,317.62] Ry 
 Optimized for a Real-space Cutoff    0.89 Angstroem

   l    n(q)    QCUT    max X(q) W(low)/X(q) W(high)/X(q)  e(spline) 
   0      9    13.321     5.582    0.15E-04    0.98E-05    0.18E-07
   0      9    13.321    69.432    0.11E-03    0.17E-03    0.12E-06
   1      8    13.321     2.780    0.25E-04    0.99E-05    0.23E-07
   1      8    13.321     4.549    0.18E-03    0.81E-04    0.67E-07
 Optimization of the real space projectors (new method)

 maximal supplied QI-value         = 34.20
 optimisation between [QCUT,QGAM] = [ 13.34, 33.86] = [ 49.83,321.09] Ry 
 Optimized for a Real-space Cutoff    0.76 Angstroem

   l    n(q)    QCUT    max X(q) W(low)/X(q) W(high)/X(q)  e(spline) 
   0      8    13.340     4.436    0.20E-04    0.16E-04    0.97E-08
   0      8    13.340    16.131    0.40E-04    0.25E-03    0.82E-07
   1      7    13.340     4.654    0.40E-03    0.13E-03    0.72E-07
 Optimization of the real space projectors (new method)

 maximal supplied QI-value         = 25.13
 optimisation between [QCUT,QGAM] = [ 13.32, 33.68] = [ 49.69,317.62] Ry 
 Optimized for a Real-space Cutoff    0.86 Angstroem

   l    n(q)    QCUT    max X(q) W(low)/X(q) W(high)/X(q)  e(spline) 
   0      9    13.321     4.511    0.35E-04    0.22E-04    0.23E-07
   0      9    13.321    37.799    0.39E-03    0.28E-03    0.13E-06
   1      8    13.321     2.478    0.33E-04    0.17E-04    0.12E-07
   1      8    13.321    14.359    0.19E-03    0.46E-03    0.40E-06
  PAW_PBE Mn_pv 02Aug2007               :
 energy of atom  1       EATOM=-2025.2664
 kinetic energy error for atom=    0.0020 (will be added to EATOM!!)
 PAW_PBE O 08Apr2002                    :
 energy of atom  2       EATOM= -432.3788
 kinetic energy error for atom=    0.0091 (will be added to EATOM!!)
 PAW_PBE C 08Apr2002                    :
 energy of atom  3       EATOM= -147.1560
 kinetic energy error for atom=    0.0032 (will be added to EATOM!!)
 PAW_PBE H 15Jun2001                    :
 energy of atom  4       EATOM=  -12.4884
 kinetic energy error for atom=    0.0002 (will be added to EATOM!!)
 PAW_PBE N 08Apr2002                    :
 energy of atom  5       EATOM= -264.5486
 kinetic energy error for atom=    0.0061 (will be added to EATOM!!)
 
 
 POSCAR: C3 H8 Mn N2 O6                          
  positions in direct lattice
  velocities in cartesian coordinates
 exchange correlation table for  LEXCH =        8
   RHO(1)=    0.500       N(1)  =     2000
   RHO(2)=  100.500       N(2)  =     4000
 


--------------------------------------------------------------------------------------------------------


 ion  position               nearest neighbor table
   1  0.540  0.498  0.110-  26 2.19  13 2.20  11 2.20   5 2.20  19 2.22  21 2.23
   2  0.460  0.502  0.610-  25 2.19  14 2.20  12 2.20   6 2.20  20 2.22  22 2.23
   3  0.040  0.002  0.110-  28 2.19  15 2.20   9 2.20   7 2.20  17 2.22  23 2.23
   4  0.960  0.998  0.610-  27 2.19  16 2.20  10 2.20   8 2.20  18 2.22  24 2.23
   5  0.323  0.425  0.184-  29 1.26   1 2.20
   6  0.677  0.575  0.684-  30 1.26   2 2.20
   7  0.823  0.075  0.184-  31 1.26   3 2.20
   8  0.177  0.925  0.684-  32 1.26   4 2.20
   9  0.134  0.238  0.183-  29 1.28   3 2.20
  10  0.866  0.762  0.683-  30 1.28   4 2.20
  11  0.634  0.262  0.183-  31 1.28   1 2.20
  12  0.366  0.738  0.683-  32 1.28   2 2.20
  13  0.443  0.731  0.036-  33 1.27   1 2.20
  14  0.557  0.269  0.536-  34 1.27   2 2.20
  15  0.943  0.769  0.036-  35 1.27   3 2.20
  16  0.057  0.231  0.536-  36 1.27   4 2.20
  17  0.256  0.922  0.033-  33 1.28   3 2.22
  18  0.744  0.078  0.533-  34 1.28   4 2.22
  19  0.756  0.578  0.033-  35 1.28   1 2.22
  20  0.244  0.422  0.533-  36 1.28   2 2.22
  21  0.568  0.655  0.268-  37 1.28   1 2.23
  22  0.432  0.345  0.768-  38 1.28   2 2.23
  23  0.068  0.845  0.268-  39 1.28   3 2.23
  24  0.932  0.155  0.768-  40 1.28   4 2.23
  25  0.509  0.647  0.454-  37 1.27   2 2.19
  26  0.491  0.353  0.954-  38 1.27   1 2.19
  27  0.009  0.853  0.454-  39 1.27   4 2.19
  28  0.991  0.147  0.954-  40 1.27   3 2.19
  29  0.268  0.281  0.160-  41 1.11   5 1.26   9 1.28
  30  0.732  0.719  0.660-  42 1.11   6 1.26  10 1.28
  31  0.768  0.219  0.160-  43 1.11   7 1.26  11 1.28
  32  0.232  0.781  0.660-  44 1.11   8 1.26  12 1.28
  33  0.324  0.794  0.077-  45 1.11  13 1.27  17 1.28
  34  0.676  0.206  0.577-  46 1.11  14 1.27  18 1.28
  35  0.824  0.706  0.077-  47 1.11  15 1.27  19 1.28
  36  0.176  0.294  0.577-  48 1.11  16 1.27  20 1.28
  37  0.545  0.575  0.361-  49 1.11  25 1.27  21 1.28
  38  0.455  0.425  0.861-  50 1.11  26 1.27  22 1.28
  39  0.045  0.925  0.361-  51 1.11  27 1.27  23 1.28
  40  0.955  0.075  0.861-  52 1.11  28 1.27  24 1.28
  41  0.339  0.187  0.114-  29 1.11
  42  0.661  0.813  0.614-  30 1.11
  43  0.839  0.313  0.114-  31 1.11
  44  0.161  0.687  0.614-  32 1.11
  45  0.275  0.735  0.154-  33 1.11
  46  0.725  0.265  0.654-  34 1.11
  47  0.775  0.765  0.154-  35 1.11
  48  0.225  0.235  0.654-  36 1.11
  49  0.556  0.435  0.360-  37 1.11
  50  0.444  0.565  0.860-  38 1.11
  51  0.056  0.065  0.360-  39 1.11
  52  0.944  0.935  0.860-  40 1.11
  53  0.073  0.624  0.302-  73 1.05
  54  0.927  0.376  0.802-  74 1.05
  55  0.573  0.876  0.302-  75 1.05
  56  0.427  0.124  0.802-  76 1.05
  57  0.076  0.409  0.276-  73 1.05
  58  0.924  0.591  0.776-  74 1.05
  59  0.576  0.091  0.276-  75 1.05
  60  0.424  0.909  0.776-  76 1.05
  61  0.146  0.485  0.402-  73 1.05
  62  0.854  0.515  0.902-  74 1.05
  63  0.646  0.015  0.402-  75 1.05
  64  0.354  0.985  0.902-  76 1.05
  65  0.903  0.603  0.434-  77 1.03
  66  0.097  0.397  0.934-  78 1.03
  67  0.403  0.897  0.434-  79 1.03
  68  0.597  0.103  0.934-  80 1.03
  69  0.922  0.394  0.447-  77 1.03
  70  0.078  0.606  0.947-  78 1.03
  71  0.422  0.106  0.447-  79 1.03
  72  0.578  0.894  0.947-  80 1.03
  73  0.062  0.503  0.339-  57 1.05  61 1.05  53 1.05  77 1.45
  74  0.938  0.497  0.839-  58 1.05  62 1.05  54 1.05  78 1.45
  75  0.562  0.997  0.339-  59 1.05  63 1.05  55 1.05  79 1.45
  76  0.438  0.003  0.839-  60 1.05  64 1.05  56 1.05  80 1.45
  77  0.914  0.491  0.388-  65 1.03  69 1.03  73 1.45
  78  0.086  0.509  0.888-  66 1.03  70 1.03  74 1.45
  79  0.414  0.009  0.388-  67 1.03  71 1.03  75 1.45
  80  0.586  0.991  0.888-  68 1.03  72 1.03  76 1.45
 
  LATTYP: Found a simple orthorhombic cell.
 ALAT       =     7.8364569896
 B/A-ratio  =     1.1435626225
 C/A-ratio  =     1.4904249943
  
  Lattice vectors:
  
 A1 = (   0.0000000000,  -7.8364569896,   0.0000000000)
 A2 = (  -8.9614793059,   0.0000000000,   0.0000000000)
 A3 = (   0.0000000000,   0.0000000000, -11.6796513636)


Analysis of symmetry for initial positions (statically):
=====================================================================
 Subroutine PRICEL returns:
 Original cell was already a primitive cell.
 

 Routine SETGRP: Setting up the symmetry group for a 
 simple orthorhombic supercell.


 Subroutine GETGRP returns: Found  4 space group operations
 (whereof  1 operations were pure point group operations)
 out of a pool of  8 trial point group operations.


The static configuration has the point symmetry C_1 .
 The point group associated with its full space group is C_2v.


Analysis of symmetry for dynamics (positions and initial velocities):
=====================================================================
 Subroutine PRICEL returns:
 Original cell was already a primitive cell.
 

 Routine SETGRP: Setting up the symmetry group for a 
 simple orthorhombic supercell.


 Subroutine GETGRP returns: Found  4 space group operations
 (whereof  1 operations were pure point group operations)
 out of a pool of  8 trial point group operations.


The dynamic configuration has the point symmetry C_1 .
 The point group associated with its full space group is C_2v.


Analysis of magnetic symmetry:
=====================================================================
 Subroutine PRICEL returns:
 Original cell was already a primitive cell.
 

 Subroutine MAGSYM returns: Found  4 space group operations
 (whereof  1 operations were pure point group operations)
 out of a pool of  4 trial space group operations
 (whereof  1 operations were pure point group operations)
 and found also     1 'primitive' translations


The magnetic configuration has the point symmetry C_1 .
 The point group associated with its full space group is C_2v.
 
 
 KPOINTS: Automatic mesh                          

Automatic generation of k-mesh.
Space group operators:
 irot       det(A)        alpha          n_x          n_y          n_z        tau_x        tau_y        tau_z
    1     1.000000     0.000001     1.000000     0.000000     0.000000     0.000000     0.000000     0.000000
    2     1.000000   180.000000     0.000000     0.000000     1.000000     0.000000     0.000000    -0.500000
    3    -1.000000   180.000000     1.000000     0.000000     0.000000    -0.500000    -0.500000    -0.500000
    4    -1.000000   180.000000     0.000000     1.000000     0.000000    -0.500000    -0.500000     0.000000
 
 Subroutine IBZKPT returns following result:
 ===========================================
 
 Found     18 irreducible k-points:
 
 Following reciprocal coordinates:
            Coordinates               Weight
  0.000000  0.000000  0.000000      1.000000
  0.200000  0.000000  0.000000      2.000000
  0.400000  0.000000  0.000000      2.000000
  0.000000  0.200000  0.000000      2.000000
  0.200000  0.200000  0.000000      4.000000
  0.400000  0.200000  0.000000      4.000000
  0.000000  0.400000  0.000000      2.000000
  0.200000  0.400000  0.000000      4.000000
  0.400000  0.400000  0.000000      4.000000
  0.000000  0.000000  0.333333      2.000000
  0.200000  0.000000  0.333333      4.000000
  0.400000  0.000000  0.333333      4.000000
  0.000000  0.200000  0.333333      4.000000
  0.200000  0.200000  0.333333      8.000000
  0.400000  0.200000  0.333333      8.000000
  0.000000  0.400000  0.333333      4.000000
  0.200000  0.400000  0.333333      8.000000
  0.400000  0.400000  0.333333      8.000000
 
 Following cartesian coordinates:
            Coordinates               Weight
  0.000000  0.000000  0.000000      1.000000
  0.022318  0.000000  0.000000      2.000000
  0.044635  0.000000  0.000000      2.000000
  0.000000  0.025522  0.000000      2.000000
  0.022318  0.025522  0.000000      4.000000
  0.044635  0.025522  0.000000      4.000000
  0.000000  0.051043  0.000000      2.000000
  0.022318  0.051043  0.000000      4.000000
  0.044635  0.051043  0.000000      4.000000
  0.000000  0.000000  0.028540      2.000000
  0.022318  0.000000  0.028540      4.000000
  0.044635  0.000000  0.028540      4.000000
  0.000000  0.025522  0.028540      4.000000
  0.022318  0.025522  0.028540      8.000000
  0.044635  0.025522  0.028540      8.000000
  0.000000  0.051043  0.028540      4.000000
  0.022318  0.051043  0.028540      8.000000
  0.044635  0.051043  0.028540      8.000000
 
 
 Subroutine IBZKPT_HF returns following result:
 ==============================================
 
 Found     75 k-points in 1st BZ
 the following     75 k-points will be used (e.g. in the exchange kernel)
 Following reciprocal coordinates:   # in IRBZ
  0.000000  0.000000  0.000000    0.01333333   1 t-inv F
  0.200000  0.000000  0.000000    0.01333333   2 t-inv F
  0.400000  0.000000  0.000000    0.01333333   3 t-inv F
  0.000000  0.200000  0.000000    0.01333333   4 t-inv F
  0.200000  0.200000  0.000000    0.01333333   5 t-inv F
  0.400000  0.200000  0.000000    0.01333333   6 t-inv F
  0.000000  0.400000  0.000000    0.01333333   7 t-inv F
  0.200000  0.400000  0.000000    0.01333333   8 t-inv F
  0.400000  0.400000  0.000000    0.01333333   9 t-inv F
  0.000000  0.000000  0.333333    0.01333333  10 t-inv F
  0.200000  0.000000  0.333333    0.01333333  11 t-inv F
  0.400000  0.000000  0.333333    0.01333333  12 t-inv F
  0.000000  0.200000  0.333333    0.01333333  13 t-inv F
  0.200000  0.200000  0.333333    0.01333333  14 t-inv F
  0.400000  0.200000  0.333333    0.01333333  15 t-inv F
  0.000000  0.400000  0.333333    0.01333333  16 t-inv F
  0.200000  0.400000  0.333333    0.01333333  17 t-inv F
  0.400000  0.400000  0.333333    0.01333333  18 t-inv F
 -0.200000  0.000000  0.000000    0.01333333   2 t-inv F spinflp
 -0.400000  0.000000  0.000000    0.01333333   3 t-inv F spinflp
  0.000000 -0.200000  0.000000    0.01333333   4 t-inv F spinflp
 -0.200000 -0.200000  0.000000    0.01333333   5 t-inv F spinflp
 -0.200000  0.200000  0.000000    0.01333333   5 t-inv F
  0.200000 -0.200000  0.000000    0.01333333   5 t-inv F spinflp
 -0.400000 -0.200000  0.000000    0.01333333   6 t-inv F spinflp
 -0.400000  0.200000  0.000000    0.01333333   6 t-inv F
  0.400000 -0.200000  0.000000    0.01333333   6 t-inv F spinflp
  0.000000 -0.400000  0.000000    0.01333333   7 t-inv F spinflp
 -0.200000 -0.400000  0.000000    0.01333333   8 t-inv F spinflp
 -0.200000  0.400000  0.000000    0.01333333   8 t-inv F
  0.200000 -0.400000  0.000000    0.01333333   8 t-inv F spinflp
 -0.400000 -0.400000  0.000000    0.01333333   9 t-inv F spinflp
 -0.400000  0.400000  0.000000    0.01333333   9 t-inv F
  0.400000 -0.400000  0.000000    0.01333333   9 t-inv F spinflp
 -0.200000  0.000000  0.333333    0.01333333  11 t-inv F spinflp
 -0.400000  0.000000  0.333333    0.01333333  12 t-inv F spinflp
  0.000000 -0.200000  0.333333    0.01333333  13 t-inv F spinflp
 -0.200000 -0.200000  0.333333    0.01333333  14 t-inv F spinflp
 -0.200000  0.200000  0.333333    0.01333333  14 t-inv F
  0.200000 -0.200000  0.333333    0.01333333  14 t-inv F spinflp
 -0.400000 -0.200000  0.333333    0.01333333  15 t-inv F spinflp
 -0.400000  0.200000  0.333333    0.01333333  15 t-inv F
  0.400000 -0.200000  0.333333    0.01333333  15 t-inv F spinflp
  0.000000 -0.400000  0.333333    0.01333333  16 t-inv F spinflp
 -0.200000 -0.400000  0.333333    0.01333333  17 t-inv F spinflp
 -0.200000  0.400000  0.333333    0.01333333  17 t-inv F
  0.200000 -0.400000  0.333333    0.01333333  17 t-inv F spinflp
 -0.400000 -0.400000  0.333333    0.01333333  18 t-inv F spinflp
 -0.400000  0.400000  0.333333    0.01333333  18 t-inv F
  0.400000 -0.400000  0.333333    0.01333333  18 t-inv F spinflp
  0.000000  0.000000 -0.333333    0.01333333  10 t-inv T
 -0.200000  0.000000 -0.333333    0.01333333  11 t-inv T
  0.200000  0.000000 -0.333333    0.01333333  11 t-inv T spinflp
 -0.400000  0.000000 -0.333333    0.01333333  12 t-inv T
  0.400000  0.000000 -0.333333    0.01333333  12 t-inv T spinflp
  0.000000 -0.200000 -0.333333    0.01333333  13 t-inv T
  0.000000  0.200000 -0.333333    0.01333333  13 t-inv T spinflp
 -0.200000 -0.200000 -0.333333    0.01333333  14 t-inv T
  0.200000  0.200000 -0.333333    0.01333333  14 t-inv T spinflp
  0.200000 -0.200000 -0.333333    0.01333333  14 t-inv T
 -0.200000  0.200000 -0.333333    0.01333333  14 t-inv T spinflp
 -0.400000 -0.200000 -0.333333    0.01333333  15 t-inv T
  0.400000  0.200000 -0.333333    0.01333333  15 t-inv T spinflp
  0.400000 -0.200000 -0.333333    0.01333333  15 t-inv T
 -0.400000  0.200000 -0.333333    0.01333333  15 t-inv T spinflp
  0.000000 -0.400000 -0.333333    0.01333333  16 t-inv T
  0.000000  0.400000 -0.333333    0.01333333  16 t-inv T spinflp
 -0.200000 -0.400000 -0.333333    0.01333333  17 t-inv T
  0.200000  0.400000 -0.333333    0.01333333  17 t-inv T spinflp
  0.200000 -0.400000 -0.333333    0.01333333  17 t-inv T
 -0.200000  0.400000 -0.333333    0.01333333  17 t-inv T spinflp
 -0.400000 -0.400000 -0.333333    0.01333333  18 t-inv T
  0.400000  0.400000 -0.333333    0.01333333  18 t-inv T spinflp
  0.400000 -0.400000 -0.333333    0.01333333  18 t-inv T
 -0.400000  0.400000 -0.333333    0.01333333  18 t-inv T spinflp


--------------------------------------------------------------------------------------------------------




 Dimension of arrays:
   k-points           NKPTS =     18   k-points in BZ     NKDIM =     18   number of bands    NBANDS=    240
   number of dos      NEDOS =   3000   number of ions     NIONS =     80
   non local maximal  LDIM  =      6   non local SUM 2l+1 LMDIM =     18
   total plane-waves  NPLWV = 604800
   max r-space proj   IRMAX =   5742   max aug-charges    IRDMAX=   5419
   dimension x,y,z NGX =    80 NGY =   70 NGZ =  108
   dimension x,y,z NGXF=    98 NGYF=   90 NGZF=  128
   support grid    NGXF=    98 NGYF=   90 NGZF=  128
   ions per type =               4  24  12  32   8
 NGX,Y,Z   is equivalent  to a cutoff of  14.84, 14.85, 15.37 a.u.
 NGXF,Y,Z  is equivalent  to a cutoff of  18.18, 19.09, 18.22 a.u.


 I would recommend the setting:
   dimension x,y,z NGX =    77 NGY =   68 NGZ =  101
 SYSTEM =  Mn-MOF                                  
 POSCAR =  C3 H8 Mn N2 O6                          

 Startparameter for this run:
   NWRITE =      2    write-flag & timer
   PREC   = high      normal or accurate (medium, high low for compatibility)
   ISTART =      0    job   : 0-new  1-cont  2-samecut
   ICHARG =      1    charge: 1-file 2-atom 10-const
   ISPIN  =      2    spin polarized calculation?
   LNONCOLLINEAR =      F non collinear calculations
   LSORBIT =      F    spin-orbit coupling
   INIWAV =      1    electr: 0-lowe 1-rand  2-diag
   LASPH  =      F    aspherical Exc in radial PAW
   METAGGA=      F    non-selfconsistent MetaGGA calc.

 Electronic Relaxation 1
   ENCUT  =  700.0 eV  51.45 Ry    7.17 a.u.  19.33 16.91 25.20*2*pi/ulx,y,z
   ENINI  =  700.0     initial cutoff
   ENAUG  =  644.9 eV  augmentation charge cutoff
   NELM   =   2000;   NELMIN=  2; NELMDL= -3     # of ELM steps 
   EDIFF  = 0.1E-05   stopping-criterion for ELM
   LREAL  =      T    real-space projection
   NLSPLINE    = F    spline interpolate recip. space projectors
   LCOMPAT=      F    compatible to vasp.4.4
   GGA_COMPAT  = T    GGA compatible to vasp.4.4-vasp.4.6
   LMAXPAW     = -100 max onsite density
   LMAXMIX     =    2 max onsite mixed and CHGCAR
   VOSKOWN=      0    Vosko Wilk Nusair interpolation
   ROPT   =   -0.00040  -0.00040  -0.00040  -0.00040
   ROPT   =   -0.00040
 Ionic relaxation
   EDIFFG = 0.1E-04   stopping-criterion for IOM
   NSW    =      0    number of steps for IOM
   NBLOCK =      1;   KBLOCK =      1    inner block; outer block 
   IBRION =     -1    ionic relax: 0-MD 1-quasi-New 2-CG
   NFREE  =      0    steps in history (QN), initial steepest desc. (CG)
   ISIF   =      2    stress and relaxation
   IWAVPR =     10    prediction:  0-non 1-charg 2-wave 3-comb
   ISYM   =      2    0-nonsym 1-usesym 2-fastsym
   LCORR  =      T    Harris-Foulkes like correction to forces

   POTIM  = 0.5000    time-step for ionic-motion
   TEIN   =    0.0    initial temperature
   TEBEG  =    0.0;   TEEND  =   0.0 temperature during run
   SMASS  =  -3.00    Nose mass-parameter (am)
   estimated Nose-frequenzy (Omega)   =  0.10E-29 period in steps =****** mass=  -0.184E-26a.u.
   SCALEE = 1.0000    scale energy and forces
   NPACO  =    256;   APACO  = 16.0  distance and # of slots for P.C.
   PSTRESS=    0.0 pullay stress

  Mass of Ions in am
   POMASS =  54.94 16.00 12.01  1.00 14.00
  Ionic Valenz
   ZVAL   =  13.00  6.00  4.00  1.00  5.00
  Atomic Wigner-Seitz radii
   RWIGS  =  -1.00 -1.00 -1.00 -1.00 -1.00
  virtual crystal weights 
   VCA    =   1.00  1.00  1.00  1.00  1.00
   NELECT =     316.0000    total number of electrons
   NUPDOWN=      -1.0000    fix difference up-down

 DOS related values:
   EMIN   =  10.00;   EMAX   =-10.00  energy-range for DOS
   EFERMI =   0.00
   ISMEAR =     0;   SIGMA  =   0.10  broadening in eV -4-tet -1-fermi 0-gaus

 Electronic relaxation 2 (details)
   IALGO  =     38    algorithm
   LDIAG  =      T    sub-space diagonalisation (order eigenvalues)
   LSUBROT=      F    optimize rotation matrix (better conditioning)
   TURBO    =      0    0=normal 1=particle mesh
   IRESTART =      0    0=no restart 2=restart with 2 vectors
   NREBOOT  =      0    no. of reboots
   NMIN     =      0    reboot dimension
   EREF     =   0.00    reference energy to select bands
   IMIX   =      4    mixing-type and parameters
     AMIX     =   0.40;   BMIX     =  1.00
     AMIX_MAG =   1.60;   BMIX_MAG =  1.00
     AMIN     =   0.10
     WC   =   100.;   INIMIX=   1;  MIXPRE=   1;  MAXMIX= -45

 Intra band minimization:
   WEIMIN = 0.0000     energy-eigenvalue tresh-hold
   EBREAK =  0.10E-08  absolut break condition
   DEPER  =   0.30     relativ break condition  

   TIME   =   0.40     timestep for ELM

  volume/ion in A,a.u.               =      10.25        69.19
  Fermi-wavevector in a.u.,A,eV,Ry     =   1.191226  2.251090 19.306923  1.419019
  Thomas-Fermi vector in A             =   2.327292
 
 Write flags
   LWAVE  =      F    write WAVECAR
   LCHARG =      T    write CHGCAR
   LVTOT  =      F    write LOCPOT, total local potential
   LVHAR  =      F    write LOCPOT, Hartree potential only
   LELF   =      F    write electronic localiz. function (ELF)
   LORBIT =     11    0 simple, 1 ext, 2 COOP (PROOUT)


 Dipole corrections
   LMONO  =      F    monopole corrections only (constant potential shift)
   LDIPOL =      F    correct potential (dipole corrections)
   IDIPOL =      0    1-x, 2-y, 3-z, 4-all directions 
   EPSILON=  1.0000000 bulk dielectric constant

 LDA+U is selected, type is set to LDAUTYPE =  2
   angular momentum for each species LDAUL =     2   -1   -1   -1   -1
   U (eV)           for each species LDAUU =   4.5  0.0  0.0  0.0  0.0
   J (eV)           for each species LDAUJ =   0.5  0.0  0.0  0.0  0.0
 Exchange correlation treatment:
   GGA     =    --    GGA type
   LEXCH   =     8    internal setting for exchange type
   VOSKOWN=      0    Vosko Wilk Nusair interpolation
   LHFCALC =     F    Hartree Fock is set to
   LHFONE  =     F    Hartree Fock one center treatment
   AEXX    =    0.0000 exact exchange contribution

 Linear response parameters
   LEPSILON=     F    determine dielectric tensor
   LRPA    =     F    only Hartree local field effects (RPA)
   LNABLA  =     F    use nabla operator in PAW spheres
   LVEL    =     F    velocity operator in full k-point grid
   LINTERFAST=   F  fast interpolation
   KINTER  =     0    interpolate to denser k-point grid
   CSHIFT  =0.1000    complex shift for real part using Kramers Kronig
   OMEGAMAX=  -1.0    maximum frequency
   DEG_THRESHOLD= 0.2000000E-02 threshold for treating states as degnerate
   RTIME   =    0.100 relaxation time in fs

 Orbital magnetization related:
   ORBITALMAG=     F  switch on orbital magnetization
   LCHIMAG   =     F  perturbation theory with respect to B field
   DQ        =  0.001000  dq finite difference perturbation B field

 PEAD related settings:
   LPEAD      =     T    switch on PEAD
   IPEAD      =     4    finite difference order for dpsi/dk
   LCALCPOL   =     T    calculate macroscopic polarization
   LCALCEPS   =     F    calculate dielectric tensor
   EFIELD_PEAD=    0.0000    0.0000    0.0000
   SKIP_EDOTP =     F
   LRPA       =     F
   SKIP_SCF   =     F


--------------------------------------------------------------------------------------------------------


 Static calculation
 charge density and potential will be updated during run
 spin polarized calculation
 Variant of blocked Davidson
 Davidson routine will perform the subspace rotation
 perform sub-space diagonalisation
    after iterative eigenvector-optimisation
 modified Broyden-mixing scheme, WC =      100.0
 initial mixing is a Kerker type mixing with AMIX =  0.4000 and BMIX =      1.0000
 Hartree-type preconditioning will be used
 using additional bands           82
 real space projection scheme for non local part
 use partial core corrections
 calculate Harris-corrections to forces 
   (improved forces if not selfconsistent)
 use gradient corrections 
 use of overlap-Matrix (Vanderbilt PP)
 Gauss-broadening in eV      SIGMA  =   0.10


--------------------------------------------------------------------------------------------------------


  energy-cutoff  :      700.00
  volume of cell :      820.22
      direct lattice vectors                 reciprocal lattice vectors
     8.961479306  0.000000000  0.000000000     0.111588719  0.000000000  0.000000000
     0.000000000  7.836456990  0.000000000     0.000000000  0.127608689  0.000000000
     0.000000000  0.000000000 11.679651364     0.000000000  0.000000000  0.085618994

  length of vectors
     8.961479306  7.836456990 11.679651364     0.111588719  0.127608689  0.085618994


 
 k-points in units of 2pi/SCALE and weight: Automatic mesh                          
   0.00000000  0.00000000  0.00000000       0.013
   0.02231774  0.00000000  0.00000000       0.027
   0.04463549  0.00000000  0.00000000       0.027
   0.00000000  0.02552174  0.00000000       0.027
   0.02231774  0.02552174  0.00000000       0.053
   0.04463549  0.02552174  0.00000000       0.053
   0.00000000  0.05104348  0.00000000       0.027
   0.02231774  0.05104348  0.00000000       0.053
   0.04463549  0.05104348  0.00000000       0.053
   0.00000000  0.00000000  0.02853966       0.027
   0.02231774  0.00000000  0.02853966       0.053
   0.04463549  0.00000000  0.02853966       0.053
   0.00000000  0.02552174  0.02853966       0.053
   0.02231774  0.02552174  0.02853966       0.107
   0.04463549  0.02552174  0.02853966       0.107
   0.00000000  0.05104348  0.02853966       0.053
   0.02231774  0.05104348  0.02853966       0.107
   0.04463549  0.05104348  0.02853966       0.107
 
 k-points in reciprocal lattice and weights: Automatic mesh                          
   0.00000000  0.00000000  0.00000000       0.013
   0.20000000  0.00000000  0.00000000       0.027
   0.40000000  0.00000000  0.00000000       0.027
   0.00000000  0.20000000  0.00000000       0.027
   0.20000000  0.20000000  0.00000000       0.053
   0.40000000  0.20000000  0.00000000       0.053
   0.00000000  0.40000000  0.00000000       0.027
   0.20000000  0.40000000  0.00000000       0.053
   0.40000000  0.40000000  0.00000000       0.053
   0.00000000  0.00000000  0.33333333       0.027
   0.20000000  0.00000000  0.33333333       0.053
   0.40000000  0.00000000  0.33333333       0.053
   0.00000000  0.20000000  0.33333333       0.053
   0.20000000  0.20000000  0.33333333       0.107
   0.40000000  0.20000000  0.33333333       0.107
   0.00000000  0.40000000  0.33333333       0.053
   0.20000000  0.40000000  0.33333333       0.107
   0.40000000  0.40000000  0.33333333       0.107
 
 position of ions in fractional coordinates (direct lattice) 
   0.54041253  0.49831884  0.11016419
   0.45958747  0.50168116  0.61016419
   0.04041249  0.00168115  0.11016419
   0.95958742  0.99831884  0.61016419
   0.32330710  0.42526766  0.18426070
   0.67669290  0.57473234  0.68426068
   0.82330710  0.07473235  0.18426070
   0.17669290  0.92526769  0.68426068
   0.13435897  0.23780681  0.18305191
   0.86564103  0.76219316  0.68305191
   0.63435897  0.26219319  0.18305191
   0.36564106  0.73780681  0.68305191
   0.44273907  0.73094663  0.03623593
   0.55726095  0.26905337  0.53623595
   0.94273910  0.76905334  0.03623593
   0.05726092  0.23094669  0.53623595
   0.25611775  0.92173724  0.03349783
   0.74388225  0.07826276  0.53349782
   0.75611775  0.57826279  0.03349783
   0.24388225  0.42173724  0.53349782
   0.56776967  0.65536041  0.26777204
   0.43223033  0.34463959  0.76777210
   0.06776965  0.84463956  0.26777204
   0.93223033  0.15536043  0.76777210
   0.50912776  0.64735474  0.45445999
   0.49087224  0.35264523  0.95445995
   0.00912769  0.85264523  0.45445999
   0.99087224  0.14735471  0.95445995
   0.26833435  0.28141658  0.15959288
   0.73166562  0.71858342  0.65959288
   0.76833438  0.21858342  0.15959288
   0.23166565  0.78141655  0.65959288
   0.32372105  0.79385965  0.07671277
   0.67627895  0.20614035  0.57671277
   0.82372105  0.70614032  0.07671277
   0.17627895  0.29385971  0.57671277
   0.54453632  0.57538686  0.36119841
   0.45546368  0.42461314  0.86119837
   0.04453639  0.92461317  0.36119841
   0.95546368  0.07538679  0.86119837
   0.33880519  0.18709203  0.11428208
   0.66119484  0.81290797  0.61428211
   0.83880516  0.31290797  0.11428208
   0.16119481  0.68709200  0.61428211
   0.27499508  0.73455478  0.15409183
   0.72500489  0.26544522  0.65409182
   0.77499511  0.76544519  0.15409183
   0.22500490  0.23455472  0.65409182
   0.55624343  0.43494334  0.36014439
   0.44375657  0.56505669  0.86014435
   0.05624345  0.06505666  0.36014439
   0.94375651  0.93494334  0.86014435
   0.07308245  0.62441782  0.30229516
   0.92691754  0.37558215  0.80229520
   0.57308241  0.87558215  0.30229516
   0.42691756  0.12441784  0.80229520
   0.07630621  0.40857892  0.27649357
   0.92369373  0.59142105  0.77649353
   0.57630622  0.09142108  0.27649357
   0.42369378  0.90857892  0.77649353
   0.14559964  0.48528714  0.40167617
   0.85440036  0.51471289  0.90167621
   0.64559964  0.01471286  0.40167617
   0.35440034  0.98528714  0.90167621
   0.90313091  0.60288435  0.43411298
   0.09686911  0.39711568  0.93411298
   0.40313091  0.89711568  0.43411298
   0.59686909  0.10288433  0.93411298
   0.92173280  0.39379325  0.44693022
   0.07826715  0.60620675  0.94693022
   0.42173282  0.10620674  0.44693022
   0.57826715  0.89379328  0.94693022
   0.06244259  0.50262589  0.33934874
   0.93755744  0.49737411  0.83934874
   0.56244256  0.99737414  0.33934874
   0.43755739  0.00262589  0.83934874
   0.91393957  0.49145394  0.38824819
   0.08606045  0.50854606  0.88824827
   0.41393955  0.00854605  0.38824819
   0.58606043  0.99145394  0.88824827
 
 position of ions in cartesian coordinates  (Angst):
   4.84289571  3.90505416  1.28667936
   4.11858359  3.93140283  7.12650504
   0.36215570  0.01317430  1.28667936
   8.59932276  7.82328265  7.12650504
   2.89730990  3.33259170  2.15210074
   6.06416941  4.50386529  7.99192617
   7.37804955  0.58563686  2.15210074
   1.58342976  7.25082043  7.99192617
   1.20405509  1.86356286  2.13798249
   7.75742422  5.97289390  7.97780817
   5.68479474  2.05466564  2.13798249
   3.27668480  5.78179135  7.97780817
   3.96759704  5.72803184  0.42322304
   4.99388250  2.10842515  6.26304899
   8.44833693  6.02665340  0.42322304
   0.51314256  1.80980382  6.26304899
   2.29519391  7.22315427  0.39124294
   6.66628539  0.61330279  6.23106856
   6.77593357  4.53153146  0.39124294
   2.18554574  3.30492577  6.23106856
   5.08805613  5.13570370  3.12748406
   3.87342318  2.70075329  8.96731045
   0.60731636  6.61898155  3.12748406
   8.35416283  1.21747533  8.96731045
   4.56253787  5.07296758  5.30793427
   4.39894143  2.76348917 11.14775947
   0.08179763  6.68171767  5.30793427
   8.87968108  1.15473884 11.14775947
   2.40467274  2.20530894  1.86398916
   6.55680634  5.63114805  7.70381484
   6.88541262  1.71291955  1.86398916
   2.07606692  6.12353719  7.70381484
   2.90101950  6.22104700  0.89597842
   6.06045981  1.61540999  6.73580410
   7.38175915  5.53363825  0.89597842
   1.57972015  2.30281898  6.73580410
   4.87985098  4.50899439  4.21867154
   4.08162832  3.32746260 10.05849674
   0.39911189  7.24569133  4.21867154
   8.56236798  0.59076536 10.05849674
   3.03619569  1.46613862  1.33477482
   5.92528386  6.37031837  7.17460085
   7.51693510  2.45208987  1.33477482
   1.44454397  5.38436688  7.17460085
   2.46436273  5.75630697  1.79973886
   6.49711633  2.08015002  7.63956443
   6.94510263  5.99837828  1.79973886
   2.01637680  1.83807800  7.63956443
   4.98476403  3.40841475  4.20636088
   3.97671528  4.42804249 10.04618608
   0.50402450  0.50981375  4.20636088
   8.45745444  7.32664324 10.04618608
   0.65492688  4.89322339  3.53070206
   8.30655231  2.94323336  9.37052822
   5.13566617  6.86146185  3.53070206
   3.82581289  0.97499507  9.37052822
   0.68381652  3.20181114  3.22934846
   8.27766225  4.63464562  9.06917366
   5.16455622  0.71641736  3.22934846
   3.79692308  7.12003963  9.06917366
   1.30478813  3.80293180  4.69143767
   7.65669118  4.03352543 10.53126383
   5.78552778  0.11529672  4.69143767
   3.17595128  7.72116030 10.53126383
   8.09338892  4.72447726  5.07028821
   0.86809051  3.11197997 10.91011389
   3.61264927  7.03020847  5.07028821
   5.34883004  0.80624865 10.91011389
   8.26008939  3.08594386  5.21998912
   0.70138944  4.75051313 11.05981481
   3.77934998  0.83228452  5.21998912
   5.18212910  7.00417259 11.05981481
   0.55957801  3.93880616  3.96347493
   8.40190159  3.89765083  9.80330061
   5.04031737  7.81587956  3.96347493
   3.92116146  0.02057765  9.80330061
   8.19025056  3.85125768  4.53460355
   0.77122893  3.98519931 10.37443017
   3.70951067  0.06697073  4.53460355
   5.25196840  7.76948617 10.37443017
 


--------------------------------------------------------------------------------------------------------


 k-point  1 :   0.0000 0.0000 0.0000  plane waves:   34481
 k-point  2 :   0.2000 0.0000 0.0000  plane waves:   34499
 k-point  3 :   0.4000 0.0000 0.0000  plane waves:   34500
 k-point  4 :   0.0000 0.2000 0.0000  plane waves:   34516
 k-point  5 :   0.2000 0.2000 0.0000  plane waves:   34484
 k-point  6 :   0.4000 0.2000 0.0000  plane waves:   34472
 k-point  7 :   0.0000 0.4000 0.0000  plane waves:   34482
 k-point  8 :   0.2000 0.4000 0.0000  plane waves:   34505
 k-point  9 :   0.4000 0.4000 0.0000  plane waves:   34486
 k-point 10 :   0.0000 0.0000 0.3333  plane waves:   34486
 k-point 11 :   0.2000 0.0000 0.3333  plane waves:   34491
 k-point 12 :   0.4000 0.0000 0.3333  plane waves:   34457
 k-point 13 :   0.0000 0.2000 0.3333  plane waves:   34502
 k-point 14 :   0.2000 0.2000 0.3333  plane waves:   34516
 k-point 15 :   0.4000 0.2000 0.3333  plane waves:   34474
 k-point 16 :   0.0000 0.4000 0.3333  plane waves:   34517
 k-point 17 :   0.2000 0.4000 0.3333  plane waves:   34498
 k-point 18 :   0.4000 0.4000 0.3333  plane waves:   34529

 maximum and minimum number of plane-waves per node :     34529    34457

 maximum number of plane-waves:     34529
 maximum index in each direction: 
   IXMAX=   19   IYMAX=   16   IZMAX=   25
   IXMIN=  -19   IYMIN=  -17   IZMIN=  -25

 NGX is ok and might be reduce to  78
 NGY is ok and might be reduce to  68
 NGZ is ok and might be reduce to 102

 serial   3D FFT for wavefunctions
 parallel 3D FFT for charge:
    minimum data exchange during FFTs selected (reduces bandwidth)


 total amount of memory used by VASP on root node   208893. kBytes
========================================================================

   base      :      30000. kBytes
   nonlr-proj:      19195. kBytes
   fftplans  :       3677. kBytes
   grid      :      52204. kBytes
   one-center:       2488. kBytes
   wavefun   :     101329. kBytes
 
     INWAV:  cpu time    0.0000: real time    0.0000
 Broyden mixing: mesh for mixing (old mesh)
   NGX = 39   NGY = 33   NGZ = 51
  (NGX  = 98   NGY  = 90   NGZ  =128)
  gives a total of  65637 points

 initial charge density was supplied:
 number of electron     316.0000285 magnetization       0.0000000
 keeping initial charge density in first step


--------------------------------------------------------------------------------------------------------


 Maximum index for non-local projection operator         5517
 Maximum index for augmentation-charges          660 (set IRDMAX)


--------------------------------------------------------------------------------------------------------


 First call to EWALD:  gamma=   0.189
 Maximum number of real-space cells 3x 3x 2
 Maximum number of reciprocal cells 3x 2x 3

 FEWALD executed in parallel
    FEWALD:  cpu time    0.0027: real time    0.0027


----------------------------------------- Iteration    1(   1)  ---------------------------------------


    POTLOK:  cpu time    0.1054: real time    0.1124
    SETDIJ:  cpu time    0.0134: real time    0.0173
atom =   1  type =  1  l = 2
 
 onsite density matrix
 
spin component  1
 
  0.0332  0.0003  0.0004 -0.0000  0.0000
  0.0003  0.0330 -0.0000 -0.0004  0.0000
  0.0004 -0.0000  0.0328  0.0002  0.0001
 -0.0000 -0.0004  0.0002  0.0328  0.0003
  0.0000  0.0000  0.0001  0.0003  0.0332
 
spin component  2
 
  0.9564 -0.0003  0.0001 -0.0001  0.0000
 -0.0003  0.9566 -0.0001 -0.0001  0.0001
  0.0001 -0.0001  0.9561 -0.0002  0.0004
 -0.0001 -0.0001 -0.0002  0.9558 -0.0003
  0.0000  0.0001  0.0004 -0.0003  0.9564
 
 occupancies and eigenvectors
 
  o =  0.0324  v = -0.1977  0.5910  0.0530  0.7274 -0.2823  0.0000  0.0000  0.0000  0.0000  0.0000      0.0000  0.0000  0.0000  0.0000  0.0000  0.0000  0.0000  0.0000  0.0000  0.0000
  o =  0.0325  v =  0.5295 -0.0874 -0.7953  0.2811  0.0211  0.0000  0.0000  0.0000  0.0000  0.0000      0.0000  0.0000  0.0000  0.0000  0.0000  0.0000  0.0000  0.0000  0.0000  0.0000
  o =  0.0331  v = -0.2513  0.5510 -0.2868 -0.2200  0.7090  0.0000  0.0000  0.0000  0.0000  0.0000      0.0000  0.0000  0.0000  0.0000  0.0000  0.0000  0.0000  0.0000  0.0000  0.0000
  o =  0.0335  v = -0.1186  0.3754 -0.3362 -0.5628 -0.6444  0.0000  0.0000  0.0000  0.0000  0.0000      0.0000  0.0000  0.0000  0.0000  0.0000  0.0000  0.0000  0.0000  0.0000  0.0000
  o =  0.0336  v =  0.7767  0.4456  0.4116 -0.1636  0.0447  0.0000  0.0000  0.0000  0.0000  0.0000      0.0000  0.0000  0.0000  0.0000  0.0000  0.0000  0.0000  0.0000  0.0000  0.0000
  o =  0.9557  v =  0.0000  0.0000  0.0000  0.0000  0.0000  0.1962  0.0981 -0.0382  0.8976  0.3805      0.0000  0.0000  0.0000  0.0000  0.0000  0.0000  0.0000  0.0000  0.0000  0.0000
  o =  0.9558  v =  0.0000  0.0000  0.0000  0.0000  0.0000 -0.0032 -0.1817 -0.8136 -0.2274  0.5033      0.0000  0.0000  0.0000  0.0000  0.0000  0.0000  0.0000  0.0000  0.0000  0.0000
  o =  0.9562  v =  0.0000  0.0000  0.0000  0.0000  0.0000  0.7628  0.5708 -0.1899 -0.1649 -0.1705      0.0000  0.0000  0.0000  0.0000  0.0000  0.0000  0.0000  0.0000  0.0000  0.0000
  o =  0.9569  v =  0.0000  0.0000  0.0000  0.0000  0.0000 -0.6161  0.7394 -0.2421  0.0823 -0.0913      0.0000  0.0000  0.0000  0.0000  0.0000  0.0000  0.0000  0.0000  0.0000  0.0000
  o =  0.9569  v =  0.0000  0.0000  0.0000  0.0000  0.0000  0.0011  0.2914  0.4918 -0.3297  0.7513      0.0000  0.0000  0.0000  0.0000  0.0000  0.0000  0.0000  0.0000  0.0000  0.0000
atom =   2  type =  1  l = 2
 
 onsite density matrix
 
spin component  1
 
  0.9564  0.0003  0.0001  0.0001  0.0000
  0.0003  0.9566  0.0001 -0.0001 -0.0001
  0.0001  0.0001  0.9561  0.0002  0.0004
  0.0001 -0.0001  0.0002  0.9558  0.0003
  0.0000 -0.0001  0.0004  0.0003  0.9564
 
spin component  2
 
  0.0332 -0.0003  0.0004  0.0000  0.0000
 -0.0003  0.0330  0.0000 -0.0004 -0.0000
  0.0004  0.0000  0.0328 -0.0002  0.0001
  0.0000 -0.0004 -0.0002  0.0328 -0.0003
  0.0000 -0.0000  0.0001 -0.0003  0.0332
 
 occupancies and eigenvectors
 
  o =  0.0324  v =  0.0000  0.0000  0.0000  0.0000  0.0000 -0.1977 -0.5910  0.0530 -0.7274 -0.2823      0.0000  0.0000  0.0000  0.0000  0.0000  0.0000  0.0000  0.0000  0.0000  0.0000
  o =  0.0325  v =  0.0000  0.0000  0.0000  0.0000  0.0000  0.5295  0.0874 -0.7953 -0.2811  0.0211      0.0000  0.0000  0.0000  0.0000  0.0000  0.0000  0.0000  0.0000  0.0000  0.0000
  o =  0.0331  v =  0.0000  0.0000  0.0000  0.0000  0.0000 -0.2513 -0.5510 -0.2868  0.2200  0.7090      0.0000  0.0000  0.0000  0.0000  0.0000  0.0000  0.0000  0.0000  0.0000  0.0000
  o =  0.0335  v =  0.0000  0.0000  0.0000  0.0000  0.0000  0.1186  0.3754  0.3362 -0.5628  0.6444      0.0000  0.0000  0.0000  0.0000  0.0000  0.0000  0.0000  0.0000  0.0000  0.0000
  o =  0.0336  v =  0.0000  0.0000  0.0000  0.0000  0.0000 -0.7767  0.4456 -0.4116 -0.1636 -0.0447      0.0000  0.0000  0.0000  0.0000  0.0000  0.0000  0.0000  0.0000  0.0000  0.0000
  o =  0.9557  v = -0.1962  0.0981  0.0382  0.8976 -0.3805  0.0000  0.0000  0.0000  0.0000  0.0000      0.0000  0.0000  0.0000  0.0000  0.0000  0.0000  0.0000  0.0000  0.0000  0.0000
  o =  0.9558  v =  0.0032 -0.1817  0.8136 -0.2274 -0.5033  0.0000  0.0000  0.0000  0.0000  0.0000      0.0000  0.0000  0.0000  0.0000  0.0000  0.0000  0.0000  0.0000  0.0000  0.0000
  o =  0.9562  v =  0.7628 -0.5708 -0.1899  0.1649 -0.1705  0.0000  0.0000  0.0000  0.0000  0.0000      0.0000  0.0000  0.0000  0.0000  0.0000  0.0000  0.0000  0.0000  0.0000  0.0000
  o =  0.9569  v = -0.6161 -0.7394 -0.2421 -0.0823 -0.0913  0.0000  0.0000  0.0000  0.0000  0.0000      0.0000  0.0000  0.0000  0.0000  0.0000  0.0000  0.0000  0.0000  0.0000  0.0000
  o =  0.9569  v =  0.0011 -0.2914  0.4918  0.3297  0.7513  0.0000  0.0000  0.0000  0.0000  0.0000      0.0000  0.0000  0.0000  0.0000  0.0000  0.0000  0.0000  0.0000  0.0000  0.0000
atom =   3  type =  1  l = 2
 
 onsite density matrix
 
spin component  1
 
  0.9564 -0.0003 -0.0001  0.0001  0.0000
 -0.0003  0.9566  0.0001  0.0001 -0.0001
 -0.0001  0.0001  0.9561 -0.0002  0.0004
  0.0001  0.0001 -0.0002  0.9558 -0.0003
  0.0000 -0.0001  0.0004 -0.0003  0.9564
 
spin component  2
 
  0.0332  0.0003 -0.0004  0.0000  0.0000
  0.0003  0.0330  0.0000  0.0004 -0.0000
 -0.0004  0.0000  0.0328  0.0002  0.0001
  0.0000  0.0004  0.0002  0.0328  0.0003
  0.0000 -0.0000  0.0001  0.0003  0.0332
 
 occupancies and eigenvectors
 
  o =  0.0324  v =  0.0000  0.0000  0.0000  0.0000  0.0000 -0.1977  0.5910 -0.0530 -0.7274  0.2823      0.0000  0.0000  0.0000  0.0000  0.0000  0.0000  0.0000  0.0000  0.0000  0.0000
  o =  0.0325  v =  0.0000  0.0000  0.0000  0.0000  0.0000  0.5295 -0.0874  0.7953 -0.2811 -0.0211      0.0000  0.0000  0.0000  0.0000  0.0000  0.0000  0.0000  0.0000  0.0000  0.0000
  o =  0.0331  v =  0.0000  0.0000  0.0000  0.0000  0.0000 -0.2513  0.5510  0.2868  0.2200 -0.7090      0.0000  0.0000  0.0000  0.0000  0.0000  0.0000  0.0000  0.0000  0.0000  0.0000
  o =  0.0335  v =  0.0000  0.0000  0.0000  0.0000  0.0000  0.1186 -0.3754 -0.3362 -0.5628 -0.6444      0.0000  0.0000  0.0000  0.0000  0.0000  0.0000  0.0000  0.0000  0.0000  0.0000
  o =  0.0336  v =  0.0000  0.0000  0.0000  0.0000  0.0000  0.7767  0.4456 -0.4116  0.1636 -0.0447      0.0000  0.0000  0.0000  0.0000  0.0000  0.0000  0.0000  0.0000  0.0000  0.0000
  o =  0.9557  v = -0.1962 -0.0981 -0.0382  0.8976  0.3805  0.0000  0.0000  0.0000  0.0000  0.0000      0.0000  0.0000  0.0000  0.0000  0.0000  0.0000  0.0000  0.0000  0.0000  0.0000
  o =  0.9558  v =  0.0032  0.1817 -0.8136 -0.2274  0.5033  0.0000  0.0000  0.0000  0.0000  0.0000      0.0000  0.0000  0.0000  0.0000  0.0000  0.0000  0.0000  0.0000  0.0000  0.0000
  o =  0.9562  v =  0.7628  0.5708  0.1899  0.1649  0.1705  0.0000  0.0000  0.0000  0.0000  0.0000      0.0000  0.0000  0.0000  0.0000  0.0000  0.0000  0.0000  0.0000  0.0000  0.0000
  o =  0.9569  v = -0.6161  0.7394  0.2421 -0.0823  0.0913  0.0000  0.0000  0.0000  0.0000  0.0000      0.0000  0.0000  0.0000  0.0000  0.0000  0.0000  0.0000  0.0000  0.0000  0.0000
  o =  0.9569  v = -0.0011 -0.2914  0.4918 -0.3297  0.7513  0.0000  0.0000  0.0000  0.0000  0.0000      0.0000  0.0000  0.0000  0.0000  0.0000  0.0000  0.0000  0.0000  0.0000  0.0000
atom =   4  type =  1  l = 2
 
 onsite density matrix
 
spin component  1
 
  0.0332 -0.0003 -0.0004 -0.0000  0.0000
 -0.0003  0.0330 -0.0000  0.0004  0.0000
 -0.0004 -0.0000  0.0328 -0.0002  0.0001
 -0.0000  0.0004 -0.0002  0.0328 -0.0003
  0.0000  0.0000  0.0001 -0.0003  0.0332
 
spin component  2
 
  0.9564  0.0003 -0.0001 -0.0001  0.0000
  0.0003  0.9566 -0.0001  0.0001  0.0001
 -0.0001 -0.0001  0.9561  0.0002  0.0004
 -0.0001  0.0001  0.0002  0.9558  0.0003
  0.0000  0.0001  0.0004  0.0003  0.9564
 
 occupancies and eigenvectors
 
  o =  0.0324  v = -0.1977 -0.5910 -0.0530  0.7274  0.2823  0.0000  0.0000  0.0000  0.0000  0.0000      0.0000  0.0000  0.0000  0.0000  0.0000  0.0000  0.0000  0.0000  0.0000  0.0000
  o =  0.0325  v =  0.5295  0.0874  0.7953  0.2811 -0.0211  0.0000  0.0000  0.0000  0.0000  0.0000      0.0000  0.0000  0.0000  0.0000  0.0000  0.0000  0.0000  0.0000  0.0000  0.0000
  o =  0.0331  v = -0.2513 -0.5510  0.2868 -0.2200 -0.7090  0.0000  0.0000  0.0000  0.0000  0.0000      0.0000  0.0000  0.0000  0.0000  0.0000  0.0000  0.0000  0.0000  0.0000  0.0000
  o =  0.0335  v = -0.1186 -0.3754  0.3362 -0.5628  0.6444  0.0000  0.0000  0.0000  0.0000  0.0000      0.0000  0.0000  0.0000  0.0000  0.0000  0.0000  0.0000  0.0000  0.0000  0.0000
  o =  0.0336  v = -0.7767  0.4456  0.4116  0.1636  0.0447  0.0000  0.0000  0.0000  0.0000  0.0000      0.0000  0.0000  0.0000  0.0000  0.0000  0.0000  0.0000  0.0000  0.0000  0.0000
  o =  0.9557  v =  0.0000  0.0000  0.0000  0.0000  0.0000  0.1962 -0.0981  0.0382  0.8976 -0.3805      0.0000  0.0000  0.0000  0.0000  0.0000  0.0000  0.0000  0.0000  0.0000  0.0000
  o =  0.9558  v =  0.0000  0.0000  0.0000  0.0000  0.0000 -0.0032  0.1817  0.8136 -0.2274 -0.5033      0.0000  0.0000  0.0000  0.0000  0.0000  0.0000  0.0000  0.0000  0.0000  0.0000
  o =  0.9562  v =  0.0000  0.0000  0.0000  0.0000  0.0000  0.7628 -0.5708  0.1899 -0.1649  0.1705      0.0000  0.0000  0.0000  0.0000  0.0000  0.0000  0.0000  0.0000  0.0000  0.0000
  o =  0.9569  v =  0.0000  0.0000  0.0000  0.0000  0.0000 -0.6161 -0.7394  0.2421  0.0823  0.0913      0.0000  0.0000  0.0000  0.0000  0.0000  0.0000  0.0000  0.0000  0.0000  0.0000
  o =  0.9569  v =  0.0000  0.0000  0.0000  0.0000  0.0000 -0.0011  0.2914  0.4918  0.3297  0.7513      0.0000  0.0000  0.0000  0.0000  0.0000  0.0000  0.0000  0.0000  0.0000  0.0000
     EDDAV:  cpu time   32.2315: real time   32.3291
       DOS:  cpu time    0.0044: real time    0.0057
    --------------------------------------------
      LOOP:  cpu time   32.3584: real time   32.4867

 eigenvalue-minimisations  : 17280
 total energy-change (2. order) : 0.2554760E+04  (-0.1879268E+05)
 number of electron     316.0000285 magnetization       0.0000000
 augmentation part      316.0000285 magnetization       0.0000000

 Free energy of the ion-electron system (eV)
  ---------------------------------------------------
  alpha Z        PSCENC =       547.60162587
  Ewald energy   TEWEN  =    -10870.10753205
  -Hartree energ DENC   =    -10592.57564522
  -exchange      EXHF   =         0.00000000
  -V(xc)+E(xc)   XCENC  =      1392.27819990
  PAW double counting   =     17093.56809918   -17350.43467507
  entropy T*S    EENTRO =        -0.05434985
  eigenvalues    EBANDS =      -425.24115433
  atomic energy  EATOM  =     22759.72526236
  Solvation  Ediel_sol  =         0.00000000
  ---------------------------------------------------
  free energy    TOTEN  =      2554.75983079 eV

  energy without entropy =     2554.81418064  energy(sigma->0) =     2554.78700571


--------------------------------------------------------------------------------------------------------




----------------------------------------- Iteration    1(   2)  ---------------------------------------


     EDDAV:  cpu time   37.4537: real time   37.5417
       DOS:  cpu time    0.0037: real time    0.0037
    --------------------------------------------
      LOOP:  cpu time   37.4581: real time   37.5686

 eigenvalue-minimisations  : 20640
 total energy-change (2. order) :-0.2818706E+04  (-0.2682364E+04)
 number of electron     316.0000285 magnetization       0.0000000
 augmentation part      316.0000285 magnetization       0.0000000

 Free energy of the ion-electron system (eV)
  ---------------------------------------------------
  alpha Z        PSCENC =       547.60162587
  Ewald energy   TEWEN  =    -10870.10753205
  -Hartree energ DENC   =    -10592.57564522
  -exchange      EXHF   =         0.00000000
  -V(xc)+E(xc)   XCENC  =      1392.27819990
  PAW double counting   =     17093.56809918   -17350.43467507
  entropy T*S    EENTRO =        -0.00000000
  eigenvalues    EBANDS =     -3244.00145548
  atomic energy  EATOM  =     22759.72526236
  Solvation  Ediel_sol  =         0.00000000
  ---------------------------------------------------
  free energy    TOTEN  =      -263.94612051 eV

  energy without entropy =     -263.94612051  energy(sigma->0) =     -263.94612051


--------------------------------------------------------------------------------------------------------




----------------------------------------- Iteration    1(   3)  ---------------------------------------


     EDDAV:  cpu time   39.1022: real time   39.1941
       DOS:  cpu time    0.0037: real time    0.0037
    CHARGE:  cpu time    1.9590: real time    1.9699
    MIXING:  cpu time    0.0014: real time    0.0052
    --------------------------------------------
      LOOP:  cpu time   41.0672: real time   41.1962

 eigenvalue-minimisations  : 21360
 total energy-change (2. order) :-0.2290233E+03  (-0.2270923E+03)
 number of electron     316.0000286 magnetization       0.0000000
 augmentation part       48.7429052 magnetization       0.0000000

 Broyden mixing:
  rms(total) = 0.39824E+00    rms(broyden)= 0.39822E+00
  rms(prec ) = 0.42110E+00
  weight for this iteration     100.00

 Free energy of the ion-electron system (eV)
  ---------------------------------------------------
  alpha Z        PSCENC =       547.60162587
  Ewald energy   TEWEN  =    -10870.10753205
  -Hartree energ DENC   =    -10592.57564522
  -exchange      EXHF   =         0.00000000
  -V(xc)+E(xc)   XCENC  =      1392.27819990
  PAW double counting   =     17093.56809918   -17350.43467507
  entropy T*S    EENTRO =        -0.00000000
  eigenvalues    EBANDS =     -3473.02477895
  atomic energy  EATOM  =     22759.72526236
  Solvation  Ediel_sol  =         0.00000000
  ---------------------------------------------------
  free energy    TOTEN  =      -492.96944398 eV

  energy without entropy =     -492.96944398  energy(sigma->0) =     -492.96944398


--------------------------------------------------------------------------------------------------------




----------------------------------------- Iteration    1(   4)  ---------------------------------------


    POTLOK:  cpu time    0.0687: real time    0.0689
    SETDIJ:  cpu time    0.0118: real time    0.0120
atom =   1  type =  1  l = 2
 
 onsite density matrix
 
spin component  1
 
  0.0345  0.0128  0.0060 -0.0160  0.0209
  0.0128  0.0404  0.0255  0.0060 -0.0012
  0.0060  0.0255  0.0300  0.0093 -0.0055
 -0.0160  0.0060  0.0093  0.0274 -0.0174
  0.0209 -0.0012 -0.0055 -0.0174  0.0301
 
spin component  2
 
  0.9555  0.0104  0.0040 -0.0101  0.0137
  0.0104  0.9657  0.0167  0.0044 -0.0001
  0.0040  0.0167  0.9522  0.0059 -0.0038
 -0.0101  0.0044  0.0059  0.9550 -0.0147
  0.0137 -0.0001 -0.0038 -0.0147  0.9574
 
 occupancies and eigenvectors
 
  o =  0.0078  v =  0.6643  0.0288 -0.4672  0.3223 -0.4855  0.0000  0.0000  0.0000  0.0000  0.0000      0.0000  0.0000  0.0000  0.0000  0.0000  0.0000  0.0000  0.0000  0.0000  0.0000
  o =  0.0086  v =  0.3317 -0.6481  0.6423 -0.0484 -0.2348  0.0000  0.0000  0.0000  0.0000  0.0000      0.0000  0.0000  0.0000  0.0000  0.0000  0.0000  0.0000  0.0000  0.0000  0.0000
  o =  0.0109  v =  0.0912 -0.1968  0.0306  0.7723  0.5963  0.0000  0.0000  0.0000  0.0000  0.0000      0.0000  0.0000  0.0000  0.0000  0.0000  0.0000  0.0000  0.0000  0.0000  0.0000
  o =  0.0669  v =  0.0999 -0.6048 -0.5617 -0.4224  0.3610  0.0000  0.0000  0.0000  0.0000  0.0000      0.0000  0.0000  0.0000  0.0000  0.0000  0.0000  0.0000  0.0000  0.0000  0.0000
  o =  0.0682  v = -0.6561 -0.4179 -0.2297  0.3449 -0.4724  0.0000  0.0000  0.0000  0.0000  0.0000      0.0000  0.0000  0.0000  0.0000  0.0000  0.0000  0.0000  0.0000  0.0000  0.0000
  o =  0.9403  v =  0.0000  0.0000  0.0000  0.0000  0.0000  0.5867  0.1179 -0.5466  0.0023 -0.5857      0.0000  0.0000  0.0000  0.0000  0.0000  0.0000  0.0000  0.0000  0.0000  0.0000
  o =  0.9403  v =  0.0000  0.0000  0.0000  0.0000  0.0000  0.5006 -0.6101  0.5774  0.1352 -0.1596      0.0000  0.0000  0.0000  0.0000  0.0000  0.0000  0.0000  0.0000  0.0000  0.0000
  o =  0.9413  v =  0.0000  0.0000  0.0000  0.0000  0.0000  0.2165 -0.0396 -0.2850  0.8011  0.4781      0.0000  0.0000  0.0000  0.0000  0.0000  0.0000  0.0000  0.0000  0.0000  0.0000
  o =  0.9813  v =  0.0000  0.0000  0.0000  0.0000  0.0000  0.0430 -0.6359 -0.4996 -0.4474  0.3796      0.0000  0.0000  0.0000  0.0000  0.0000  0.0000  0.0000  0.0000  0.0000  0.0000
  o =  0.9827  v =  0.0000  0.0000  0.0000  0.0000  0.0000 -0.5970 -0.4560 -0.1924  0.3739 -0.5087      0.0000  0.0000  0.0000  0.0000  0.0000  0.0000  0.0000  0.0000  0.0000  0.0000
atom =   2  type =  1  l = 2
 
 onsite density matrix
 
spin component  1
 
  0.9555 -0.0104  0.0040  0.0101  0.0137
 -0.0104  0.9657 -0.0167  0.0044  0.0001
  0.0040 -0.0167  0.9522 -0.0059 -0.0038
  0.0101  0.0044 -0.0059  0.9550  0.0147
  0.0137  0.0001 -0.0038  0.0147  0.9574
 
spin component  2
 
  0.0345 -0.0128  0.0060  0.0160  0.0209
 -0.0128  0.0404 -0.0255  0.0060  0.0012
  0.0060 -0.0255  0.0300 -0.0093 -0.0055
  0.0160  0.0060 -0.0093  0.0274  0.0174
  0.0209  0.0012 -0.0055  0.0174  0.0301
 
 occupancies and eigenvectors
 
  o =  0.0078  v =  0.0000  0.0000  0.0000  0.0000  0.0000 -0.6643  0.0288  0.4672  0.3223  0.4855      0.0000  0.0000  0.0000  0.0000  0.0000  0.0000  0.0000  0.0000  0.0000  0.0000
  o =  0.0086  v =  0.0000  0.0000  0.0000  0.0000  0.0000 -0.3317 -0.6481 -0.6423 -0.0484  0.2348      0.0000  0.0000  0.0000  0.0000  0.0000  0.0000  0.0000  0.0000  0.0000  0.0000
  o =  0.0109  v =  0.0000  0.0000  0.0000  0.0000  0.0000  0.0912  0.1968  0.0306 -0.7723  0.5963      0.0000  0.0000  0.0000  0.0000  0.0000  0.0000  0.0000  0.0000  0.0000  0.0000
  o =  0.0669  v =  0.0000  0.0000  0.0000  0.0000  0.0000  0.0999  0.6048 -0.5617  0.4224  0.3610      0.0000  0.0000  0.0000  0.0000  0.0000  0.0000  0.0000  0.0000  0.0000  0.0000
  o =  0.0682  v =  0.0000  0.0000  0.0000  0.0000  0.0000 -0.6561  0.4179 -0.2297 -0.3449 -0.4724      0.0000  0.0000  0.0000  0.0000  0.0000  0.0000  0.0000  0.0000  0.0000  0.0000
  o =  0.9403  v =  0.5867 -0.1179 -0.5466 -0.0023 -0.5857  0.0000  0.0000  0.0000  0.0000  0.0000      0.0000  0.0000  0.0000  0.0000  0.0000  0.0000  0.0000  0.0000  0.0000  0.0000
  o =  0.9403  v =  0.5006  0.6101  0.5774 -0.1352 -0.1596  0.0000  0.0000  0.0000  0.0000  0.0000      0.0000  0.0000  0.0000  0.0000  0.0000  0.0000  0.0000  0.0000  0.0000  0.0000
  o =  0.9413  v =  0.2165  0.0396 -0.2850 -0.8011  0.4781  0.0000  0.0000  0.0000  0.0000  0.0000      0.0000  0.0000  0.0000  0.0000  0.0000  0.0000  0.0000  0.0000  0.0000  0.0000
  o =  0.9813  v =  0.0430  0.6359 -0.4996  0.4474  0.3796  0.0000  0.0000  0.0000  0.0000  0.0000      0.0000  0.0000  0.0000  0.0000  0.0000  0.0000  0.0000  0.0000  0.0000  0.0000
  o =  0.9827  v = -0.5970  0.4560 -0.1924 -0.3739 -0.5087  0.0000  0.0000  0.0000  0.0000  0.0000      0.0000  0.0000  0.0000  0.0000  0.0000  0.0000  0.0000  0.0000  0.0000  0.0000
atom =   3  type =  1  l = 2
 
 onsite density matrix
 
spin component  1
 
  0.9555  0.0104 -0.0040  0.0101 -0.0137
  0.0104  0.9657 -0.0167 -0.0044  0.0001
 -0.0040 -0.0167  0.9522  0.0059 -0.0038
  0.0101 -0.0044  0.0059  0.9550 -0.0147
 -0.0137  0.0001 -0.0038 -0.0147  0.9574
 
spin component  2
 
  0.0345  0.0128 -0.0060  0.0160 -0.0209
  0.0128  0.0404 -0.0255 -0.0060  0.0012
 -0.0060 -0.0255  0.0300  0.0093 -0.0055
  0.0160 -0.0060  0.0093  0.0274 -0.0174
 -0.0209  0.0012 -0.0055 -0.0174  0.0301
 
 occupancies and eigenvectors
 
  o =  0.0078  v =  0.0000  0.0000  0.0000  0.0000  0.0000  0.6643  0.0288  0.4672 -0.3223  0.4855      0.0000  0.0000  0.0000  0.0000  0.0000  0.0000  0.0000  0.0000  0.0000  0.0000
  o =  0.0086  v =  0.0000  0.0000  0.0000  0.0000  0.0000 -0.3317  0.6481  0.6423 -0.0484 -0.2348      0.0000  0.0000  0.0000  0.0000  0.0000  0.0000  0.0000  0.0000  0.0000  0.0000
  o =  0.0109  v =  0.0000  0.0000  0.0000  0.0000  0.0000  0.0912 -0.1968 -0.0306 -0.7723 -0.5963      0.0000  0.0000  0.0000  0.0000  0.0000  0.0000  0.0000  0.0000  0.0000  0.0000
  o =  0.0669  v =  0.0000  0.0000  0.0000  0.0000  0.0000  0.0999 -0.6048  0.5617  0.4224 -0.3610      0.0000  0.0000  0.0000  0.0000  0.0000  0.0000  0.0000  0.0000  0.0000  0.0000
  o =  0.0682  v =  0.0000  0.0000  0.0000  0.0000  0.0000 -0.6561 -0.4179  0.2297 -0.3449  0.4724      0.0000  0.0000  0.0000  0.0000  0.0000  0.0000  0.0000  0.0000  0.0000  0.0000
  o =  0.9403  v =  0.5867  0.1179  0.5466 -0.0023  0.5857  0.0000  0.0000  0.0000  0.0000  0.0000      0.0000  0.0000  0.0000  0.0000  0.0000  0.0000  0.0000  0.0000  0.0000  0.0000
  o =  0.9403  v = -0.5006  0.6101  0.5774  0.1352 -0.1596  0.0000  0.0000  0.0000  0.0000  0.0000      0.0000  0.0000  0.0000  0.0000  0.0000  0.0000  0.0000  0.0000  0.0000  0.0000
  o =  0.9413  v =  0.2165 -0.0396  0.2850 -0.8011 -0.4781  0.0000  0.0000  0.0000  0.0000  0.0000      0.0000  0.0000  0.0000  0.0000  0.0000  0.0000  0.0000  0.0000  0.0000  0.0000
  o =  0.9813  v =  0.0430 -0.6359  0.4996  0.4474 -0.3796  0.0000  0.0000  0.0000  0.0000  0.0000      0.0000  0.0000  0.0000  0.0000  0.0000  0.0000  0.0000  0.0000  0.0000  0.0000
  o =  0.9827  v = -0.5970 -0.4560  0.1924 -0.3739  0.5087  0.0000  0.0000  0.0000  0.0000  0.0000      0.0000  0.0000  0.0000  0.0000  0.0000  0.0000  0.0000  0.0000  0.0000  0.0000
atom =   4  type =  1  l = 2
 
 onsite density matrix
 
spin component  1
 
  0.0345 -0.0128 -0.0060 -0.0160 -0.0209
 -0.0128  0.0404  0.0255 -0.0060 -0.0012
 -0.0060  0.0255  0.0300 -0.0093 -0.0055
 -0.0160 -0.0060 -0.0093  0.0274  0.0174
 -0.0209 -0.0012 -0.0055  0.0174  0.0301
 
spin component  2
 
  0.9555 -0.0104 -0.0040 -0.0101 -0.0137
 -0.0104  0.9657  0.0167 -0.0044 -0.0001
 -0.0040  0.0167  0.9522 -0.0059 -0.0038
 -0.0101 -0.0044 -0.0059  0.9550  0.0147
 -0.0137 -0.0001 -0.0038  0.0147  0.9574
 
 occupancies and eigenvectors
 
  o =  0.0078  v = -0.6643  0.0288 -0.4672 -0.3223 -0.4855  0.0000  0.0000  0.0000  0.0000  0.0000      0.0000  0.0000  0.0000  0.0000  0.0000  0.0000  0.0000  0.0000  0.0000  0.0000
  o =  0.0086  v =  0.3317  0.6481 -0.6423 -0.0484  0.2348  0.0000  0.0000  0.0000  0.0000  0.0000      0.0000  0.0000  0.0000  0.0000  0.0000  0.0000  0.0000  0.0000  0.0000  0.0000
  o =  0.0109  v =  0.0912  0.1968 -0.0306  0.7723 -0.5963  0.0000  0.0000  0.0000  0.0000  0.0000      0.0000  0.0000  0.0000  0.0000  0.0000  0.0000  0.0000  0.0000  0.0000  0.0000
  o =  0.0669  v =  0.0999  0.6048  0.5617 -0.4224 -0.3610  0.0000  0.0000  0.0000  0.0000  0.0000      0.0000  0.0000  0.0000  0.0000  0.0000  0.0000  0.0000  0.0000  0.0000  0.0000
  o =  0.0682  v = -0.6561  0.4179  0.2297  0.3449  0.4724  0.0000  0.0000  0.0000  0.0000  0.0000      0.0000  0.0000  0.0000  0.0000  0.0000  0.0000  0.0000  0.0000  0.0000  0.0000
  o =  0.9403  v =  0.0000  0.0000  0.0000  0.0000  0.0000  0.5867 -0.1179  0.5466  0.0023  0.5857      0.0000  0.0000  0.0000  0.0000  0.0000  0.0000  0.0000  0.0000  0.0000  0.0000
  o =  0.9403  v =  0.0000  0.0000  0.0000  0.0000  0.0000 -0.5006 -0.6101  0.5774 -0.1352 -0.1596      0.0000  0.0000  0.0000  0.0000  0.0000  0.0000  0.0000  0.0000  0.0000  0.0000
  o =  0.9413  v =  0.0000  0.0000  0.0000  0.0000  0.0000  0.2165  0.0396  0.2850  0.8011 -0.4781      0.0000  0.0000  0.0000  0.0000  0.0000  0.0000  0.0000  0.0000  0.0000  0.0000
  o =  0.9813  v =  0.0000  0.0000  0.0000  0.0000  0.0000  0.0430  0.6359  0.4996 -0.4474 -0.3796      0.0000  0.0000  0.0000  0.0000  0.0000  0.0000  0.0000  0.0000  0.0000  0.0000
  o =  0.9827  v =  0.0000  0.0000  0.0000  0.0000  0.0000 -0.5970  0.4560  0.1924  0.3739  0.5087      0.0000  0.0000  0.0000  0.0000  0.0000  0.0000  0.0000  0.0000  0.0000  0.0000
     EDDAV:  cpu time   38.2098: real time   38.2996
       DOS:  cpu time    0.0034: real time    0.0034
    CHARGE:  cpu time    1.9098: real time    1.9143
    MIXING:  cpu time    0.0011: real time    0.0081
    --------------------------------------------
      LOOP:  cpu time   40.2065: real time   40.3315

 eigenvalue-minimisations  : 21120
 total energy-change (2. order) :-0.3733785E+01  (-0.3798819E+01)
 number of electron     316.0000286 magnetization       0.0000000
 augmentation part       48.6265060 magnetization       0.0000000

 Broyden mixing:
  rms(total) = 0.45660E+00    rms(broyden)= 0.45659E+00
  rms(prec ) = 0.46787E+00
  weight for this iteration     100.00

 eigenvalues of (default mixing * dielectric matrix)
[...]
   -.102E+02 -.541E+02 -.122E+01   0.107E+02 0.599E+02 0.118E+01   -.585E+00 -.579E+01 0.372E-01   0.950E-05 0.108E-03 -.381E-05
   0.102E+02 0.541E+02 -.122E+01   -.107E+02 -.599E+02 0.118E+01   0.585E+00 0.579E+01 0.372E-01   -.246E-05 -.108E-03 -.368E-05
   -.115E+02 -.302E+02 0.261E+02   0.121E+02 0.364E+02 -.289E+02   -.619E+00 -.616E+01 0.280E+01   0.539E-04 0.121E-03 -.849E-04
   0.115E+02 0.302E+02 0.261E+02   -.121E+02 -.364E+02 -.289E+02   0.619E+00 0.616E+01 0.280E+01   -.483E-04 -.121E-03 -.842E-04
   -.115E+02 0.302E+02 0.261E+02   0.121E+02 -.364E+02 -.289E+02   -.619E+00 0.616E+01 0.280E+01   0.460E-04 -.121E-03 -.842E-04
   0.115E+02 -.302E+02 0.261E+02   -.121E+02 0.364E+02 -.289E+02   0.619E+00 -.616E+01 0.280E+01   -.524E-04 0.121E-03 -.825E-04
   0.251E+01 0.256E+02 0.316E+02   -.165E+01 -.305E+02 -.365E+02   -.860E+00 0.487E+01 0.486E+01   0.258E-04 -.102E-03 -.104E-03
   -.251E+01 -.256E+02 0.316E+02   0.165E+01 0.305E+02 -.365E+02   0.860E+00 -.487E+01 0.486E+01   -.201E-04 0.102E-03 -.104E-03
   0.251E+01 -.256E+02 0.316E+02   -.165E+01 0.305E+02 -.365E+02   -.860E+00 -.487E+01 0.486E+01   0.171E-04 0.102E-03 -.104E-03
   -.251E+01 0.256E+02 0.316E+02   0.165E+01 -.305E+02 -.365E+02   0.860E+00 0.487E+01 0.486E+01   -.238E-04 -.102E-03 -.102E-03
   -.400E+02 -.119E+01 -.221E+02   0.449E+02 0.276E+00 0.269E+02   -.485E+01 0.908E+00 -.477E+01   0.135E-03 -.546E-05 0.844E-04
   0.400E+02 0.119E+01 -.221E+02   -.449E+02 -.276E+00 0.269E+02   0.485E+01 -.908E+00 -.477E+01   -.132E-03 0.543E-05 0.846E-04
   -.400E+02 0.119E+01 -.221E+02   0.449E+02 -.277E+00 0.269E+02   -.485E+01 -.908E+00 -.477E+01   0.131E-03 0.546E-05 0.860E-04
   0.400E+02 -.119E+01 -.221E+02   -.449E+02 0.277E+00 0.269E+02   0.485E+01 0.908E+00 -.477E+01   -.135E-03 -.553E-05 0.873E-04
   0.219E+02 -.401E+02 -.315E+02   -.227E+02 0.463E+02 0.351E+02   0.870E+00 -.624E+01 -.367E+01   -.394E-04 0.132E-03 0.114E-03
   -.219E+02 0.401E+02 -.315E+02   0.227E+02 -.463E+02 0.351E+02   -.870E+00 0.624E+01 -.367E+01   0.444E-04 -.132E-03 0.114E-03
   0.219E+02 0.401E+02 -.315E+02   -.227E+02 -.463E+02 0.351E+02   0.870E+00 0.624E+01 -.367E+01   -.425E-04 -.132E-03 0.113E-03
   -.219E+02 -.401E+02 -.315E+02   0.227E+02 0.463E+02 0.351E+02   -.870E+00 -.624E+01 -.367E+01   0.365E-04 0.133E-03 0.113E-03
   0.155E+02 0.353E+02 -.331E+02   -.151E+02 -.408E+02 0.379E+02   -.339E+00 0.551E+01 -.476E+01   -.147E-04 -.123E-03 0.125E-03
   -.155E+02 -.353E+02 -.331E+02   0.151E+02 0.408E+02 0.379E+02   0.339E+00 -.551E+01 -.476E+01   0.202E-04 0.123E-03 0.125E-03
   0.155E+02 -.353E+02 -.331E+02   -.151E+02 0.408E+02 0.379E+02   -.339E+00 -.551E+01 -.476E+01   -.182E-04 0.123E-03 0.124E-03
   -.155E+02 0.353E+02 -.331E+02   0.151E+02 -.408E+02 0.379E+02   0.339E+00 0.551E+01 -.476E+01   0.117E-04 -.123E-03 0.125E-03
   -.504E+02 -.354E+01 0.437E+02   0.550E+02 0.383E+01 -.462E+02   -.457E+01 -.285E+00 0.249E+01   0.621E-03 0.103E-04 -.201E-03
   0.504E+02 0.354E+01 0.437E+02   -.550E+02 -.383E+01 -.462E+02   0.457E+01 0.285E+00 0.249E+01   -.592E-03 -.981E-05 -.199E-03
   -.504E+02 0.354E+01 0.437E+02   0.550E+02 -.383E+01 -.462E+02   -.457E+01 0.285E+00 0.249E+01   0.582E-03 -.101E-04 -.199E-03
   0.504E+02 -.354E+01 0.437E+02   -.550E+02 0.383E+01 -.462E+02   0.457E+01 -.285E+00 0.249E+01   -.619E-03 0.102E-04 -.190E-03
   0.137E+03 0.149E+02 0.302E+01   -.165E+03 -.194E+02 -.203E+02   0.273E+02 0.451E+01 0.173E+02   -.380E-03 -.346E-04 0.442E-03
   -.137E+03 -.149E+02 0.302E+01   0.165E+03 0.194E+02 -.203E+02   -.273E+02 -.451E+01 0.173E+02   0.408E-03 0.352E-04 0.444E-03
   0.137E+03 -.149E+02 0.302E+01   -.165E+03 0.194E+02 -.203E+02   0.273E+02 -.451E+01 0.173E+02   -.403E-03 0.348E-04 0.432E-03
   -.137E+03 0.149E+02 0.302E+01   0.165E+03 -.194E+02 -.203E+02   -.273E+02 0.451E+01 0.173E+02   0.369E-03 -.351E-04 0.439E-03
 -----------------------------------------------------------------------------------------------
   0.908E-03 0.199E-03 -.969E+02   0.369E-12 -.817E-13 0.355E-12   -.355E-14 0.888E-14 0.969E+02   0.983E-04 -.795E-06 0.107E-02
 
 
 POSITION                                       TOTAL-FORCE (eV/Angst)
 -----------------------------------------------------------------------------------
      4.84290      3.90505      1.28668        -0.000394      0.000503     -0.000418
      4.11858      3.93140      7.12651         0.000394     -0.000503     -0.000418
      0.36216      0.01317      1.28668        -0.000394     -0.000503     -0.000418
      8.59932      7.82328      7.12651         0.000394      0.000503     -0.000418
      2.89731      3.33259      2.15210        -0.000687      0.000199     -0.000673
      6.06417      4.50387      7.99193         0.000687     -0.000199     -0.000673
      7.37805      0.58564      2.15210        -0.000687     -0.000199     -0.000673
      1.58343      7.25082      7.99193         0.000687      0.000199     -0.000673
      1.20406      1.86356      2.13798         0.001300      0.000004      0.000735
      7.75742      5.97289      7.97781        -0.001300     -0.000004      0.000735
      5.68479      2.05467      2.13798         0.001300     -0.000004      0.000735
      3.27668      5.78179      7.97781        -0.001300      0.000004      0.000735
      3.96760      5.72803      0.42322        -0.000191      0.000520     -0.001103
      4.99388      2.10843      6.26305         0.000191     -0.000520     -0.001103
      8.44834      6.02665      0.42322        -0.000191     -0.000520     -0.001103
      0.51314      1.80980      6.26305         0.000191      0.000520     -0.001103
      2.29519      7.22315      0.39124         0.000559     -0.000364      0.001508
      6.66629      0.61330      6.23107        -0.000559      0.000364      0.001508
      6.77593      4.53153      0.39124         0.000559      0.000364      0.001508
      2.18555      3.30493      6.23107        -0.000559     -0.000364      0.001508
      5.08806      5.13570      3.12748         0.000200     -0.000069      0.000917
      3.87342      2.70075      8.96731        -0.000200      0.000069      0.000917
      0.60732      6.61898      3.12748         0.000200      0.000069      0.000917
      8.35416      1.21748      8.96731        -0.000200     -0.000069      0.000917
      4.56254      5.07297      5.30793         0.000011     -0.000170      0.001651
      4.39894      2.76349     11.14776        -0.000011      0.000170      0.001651
      0.08180      6.68172      5.30793         0.000011      0.000170      0.001651
      8.87968      1.15474     11.14776        -0.000011     -0.000170      0.001651
      2.40467      2.20531      1.86399        -0.000339      0.000150      0.000256
      6.55681      5.63115      7.70381         0.000339     -0.000150      0.000256
      6.88541      1.71292      1.86399        -0.000339     -0.000150      0.000256
      2.07607      6.12354      7.70381         0.000339      0.000150      0.000256
      2.90102      6.22105      0.89598        -0.000077      0.000152     -0.001083
      6.06046      1.61541      6.73580         0.000077     -0.000152     -0.001083
      7.38176      5.53364      0.89598        -0.000077     -0.000152     -0.001083
      1.57972      2.30282      6.73580         0.000077      0.000152     -0.001083
      4.87985      4.50899      4.21867        -0.000106     -0.000163      0.000081
      4.08163      3.32746     10.05850         0.000106      0.000163      0.000081
      0.39911      7.24569      4.21867        -0.000106      0.000163      0.000081
      8.56237      0.59077     10.05850         0.000106     -0.000163      0.000081
      3.03620      1.46614      1.33477         0.000032     -0.000270     -0.000254
      5.92528      6.37032      7.17460        -0.000032      0.000270     -0.000254
      7.51694      2.45209      1.33477         0.000032      0.000270     -0.000254
      1.44454      5.38437      7.17460        -0.000032     -0.000270     -0.000254
      2.46436      5.75631      1.79974         0.000041     -0.000133     -0.000866
      6.49712      2.08015      7.63956        -0.000041      0.000133     -0.000866
      6.94510      5.99838      1.79974         0.000041      0.000133     -0.000866
      2.01638      1.83808      7.63956        -0.000041     -0.000133     -0.000866
      4.98476      3.40841      4.20636        -0.000191      0.000239      0.000055
      3.97672      4.42804     10.04619         0.000191     -0.000239      0.000055
      0.50402      0.50981      4.20636        -0.000191     -0.000239      0.000055
      8.45745      7.32664     10.04619         0.000191      0.000239      0.000055
      0.65493      4.89322      3.53070        -0.000010     -0.000088     -0.000095
      8.30655      2.94323      9.37053         0.000010      0.000088     -0.000095
      5.13567      6.86146      3.53070        -0.000010      0.000088     -0.000095
      3.82581      0.97500      9.37053         0.000010     -0.000088     -0.000095
      0.68382      3.20181      3.22935        -0.000089     -0.000240     -0.000109
      8.27766      4.63465      9.06917         0.000089      0.000240     -0.000109
      5.16456      0.71642      3.22935        -0.000089      0.000240     -0.000109
      3.79692      7.12004      9.06917         0.000089     -0.000240     -0.000109
      1.30479      3.80293      4.69144         0.000098     -0.000099      0.000410
      7.65669      4.03353     10.53126        -0.000098      0.000099      0.000410
      5.78553      0.11530      4.69144         0.000098      0.000099      0.000410
      3.17595      7.72116     10.53126        -0.000098     -0.000099      0.000410
      8.09339      4.72448      5.07029         0.000020      0.000157     -0.000548
      0.86809      3.11198     10.91011        -0.000020     -0.000157     -0.000548
      3.61265      7.03021      5.07029         0.000020     -0.000157     -0.000548
      5.34883      0.80625     10.91011        -0.000020      0.000157     -0.000548
      8.26009      3.08594      5.21999        -0.000081     -0.000042      0.000082
      0.70139      4.75051     11.05981         0.000081      0.000042      0.000082
      3.77935      0.83228      5.21999        -0.000081      0.000042      0.000082
      5.18213      7.00417     11.05981         0.000081     -0.000042      0.000082
      0.55958      3.93881      3.96347        -0.000384      0.000701      0.000420
      8.40190      3.89765      9.80330         0.000384     -0.000701      0.000420
      5.04032      7.81588      3.96347        -0.000384     -0.000701      0.000420
      3.92116      0.02058      9.80330         0.000384      0.000701      0.000420
      8.19025      3.85126      4.53460         0.000577      0.000370     -0.000965
      0.77123      3.98520     10.37443        -0.000577     -0.000370     -0.000965
      3.70951      0.06697      4.53460         0.000577     -0.000370     -0.000965
      5.25197      7.76949     10.37443        -0.000577      0.000370     -0.000965
 -----------------------------------------------------------------------------------
    total drift:                                0.001006      0.000199     -0.042180


--------------------------------------------------------------------------------------------------------



  FREE ENERGIE OF THE ION-ELECTRON SYSTEM (eV)
  ---------------------------------------------------
  free  energy   TOTEN  =      -501.70552908 eV

  energy  without entropy=     -501.70552908  energy(sigma->0) =     -501.70552908
 


--------------------------------------------------------------------------------------------------------


    POTLOK:  cpu time    0.0843: real time    0.0845


--------------------------------------------------------------------------------------------------------


     LOOP+:  cpu time 1068.6410: real time 1071.8386
    4ORBIT:  cpu time    0.0000: real time    0.0000
 


 total charge     
 
# of ion     s       p       d       tot
----------------------------------------
  1        0.180   6.156   4.928  11.264
  2        0.180   6.156   4.928  11.264
  3        0.180   6.156   4.928  11.264
  4        0.180   6.156   4.928  11.264
  5        1.570   3.575   0.000   5.145
  6        1.570   3.575   0.000   5.145
  7        1.570   3.575   0.000   5.145
  8        1.570   3.575   0.000   5.145
  9        1.567   3.574   0.000   5.141
 10        1.567   3.574   0.000   5.141
 11        1.567   3.573   0.000   5.141
 12        1.567   3.573   0.000   5.141
 13        1.569   3.579   0.000   5.148
 14        1.569   3.579   0.000   5.148
 15        1.569   3.579   0.000   5.148
 16        1.569   3.579   0.000   5.148
 17        1.568   3.571   0.000   5.140
 18        1.568   3.571   0.000   5.140
 19        1.568   3.571   0.000   5.140
 20        1.568   3.571   0.000   5.140
 21        1.568   3.575   0.000   5.143
 22        1.568   3.575   0.000   5.143
 23        1.568   3.575   0.000   5.143
 24        1.568   3.575   0.000   5.143
 25        1.569   3.577   0.000   5.145
 26        1.569   3.577   0.000   5.145
 27        1.569   3.577   0.000   5.145
 28        1.569   3.577   0.000   5.145
 29        0.875   1.705   0.000   2.580
 30        0.875   1.705   0.000   2.580
 31        0.875   1.705   0.000   2.580
 32        0.875   1.705   0.000   2.580
 33        0.875   1.706   0.000   2.581
 34        0.875   1.706   0.000   2.581
 35        0.875   1.706   0.000   2.581
 36        0.875   1.706   0.000   2.581
 37        0.875   1.702   0.000   2.577
 38        0.875   1.702   0.000   2.577
 39        0.875   1.702   0.000   2.577
 40        0.875   1.702   0.000   2.577
 41        0.640   0.046   0.000   0.686
 42        0.640   0.046   0.000   0.686
 43        0.640   0.046   0.000   0.686
 44        0.640   0.046   0.000   0.686
 45        0.638   0.046   0.000   0.684
 46        0.638   0.046   0.000   0.684
 47        0.638   0.046   0.000   0.684
 48        0.638   0.046   0.000   0.684
 49        0.640   0.046   0.000   0.686
 50        0.640   0.046   0.000   0.686
 51        0.640   0.046   0.000   0.686
 52        0.640   0.046   0.000   0.686
 53        0.585   0.087   0.000   0.672
 54        0.585   0.087   0.000   0.672
 55        0.585   0.087   0.000   0.672
 56        0.585   0.087   0.000   0.672
 57        0.592   0.087   0.000   0.679
 58        0.592   0.087   0.000   0.679
 59        0.592   0.087   0.000   0.679
 60        0.592   0.087   0.000   0.679
 61        0.592   0.084   0.000   0.677
 62        0.592   0.084   0.000   0.677
 63        0.592   0.084   0.000   0.677
 64        0.592   0.084   0.000   0.677
 65        0.632   0.085   0.000   0.716
 66        0.632   0.085   0.000   0.716
 67        0.632   0.085   0.000   0.716
 68        0.632   0.085   0.000   0.716
 69        0.629   0.086   0.000   0.715
 70        0.629   0.086   0.000   0.715
 71        0.629   0.086   0.000   0.715
 72        0.629   0.086   0.000   0.715
 73        1.217   2.733   0.000   3.950
 74        1.217   2.733   0.000   3.950
 75        1.217   2.733   0.000   3.950
 76        1.217   2.733   0.000   3.950
 77        1.234   2.617   0.000   3.851
 78        1.234   2.617   0.000   3.851
 79        1.234   2.617   0.000   3.851
 80        1.234   2.617   0.000   3.851
------------------------------------------------
tot       78.466 154.541  19.713 252.721
 


 magnetization (x)
 
# of ion     s       p       d       tot
----------------------------------------
  1       -0.023  -0.022  -4.607  -4.651
  2        0.023   0.022   4.607   4.651
  3        0.023   0.022   4.607   4.651
  4       -0.023  -0.022  -4.607  -4.651
  5       -0.003  -0.008   0.000  -0.011
  6        0.003   0.008   0.000   0.011
  7        0.003   0.008   0.000   0.011
  8       -0.003  -0.008   0.000  -0.011
  9        0.003   0.007   0.000   0.009
 10       -0.003  -0.007   0.000  -0.009
 11       -0.003  -0.007   0.000  -0.009
 12        0.003   0.007   0.000   0.009
 13       -0.003  -0.008   0.000  -0.011
 14        0.003   0.008   0.000   0.011
 15        0.003   0.008   0.000   0.011
 16       -0.003  -0.008   0.000  -0.011
 17        0.003   0.007   0.000   0.010
 18       -0.003  -0.007   0.000  -0.010
 19       -0.003  -0.007   0.000  -0.010
 20        0.003   0.007   0.000   0.010
 21       -0.003  -0.006   0.000  -0.009
 22        0.003   0.006   0.000   0.009
 23        0.003   0.006   0.000   0.009
 24       -0.003  -0.006   0.000  -0.009
 25        0.003   0.008   0.000   0.011
 26       -0.003  -0.008   0.000  -0.011
 27       -0.003  -0.008   0.000  -0.011
 28        0.003   0.008   0.000   0.011
 29       -0.000  -0.000   0.000  -0.000
 30        0.000   0.000   0.000   0.000
 31        0.000   0.000   0.000   0.000
 32       -0.000  -0.000   0.000  -0.000
 33       -0.000  -0.000   0.000  -0.000
 34        0.000   0.000   0.000   0.000
 35        0.000   0.000   0.000   0.000
 36       -0.000  -0.000   0.000  -0.000
 37        0.000  -0.000   0.000  -0.000
 38       -0.000   0.000   0.000   0.000
 39       -0.000   0.000   0.000   0.000
 40        0.000  -0.000   0.000  -0.000
 41       -0.000  -0.000   0.000  -0.000
 42        0.000   0.000   0.000   0.000
 43        0.000   0.000   0.000   0.000
 44       -0.000  -0.000   0.000  -0.000
 45       -0.000  -0.000   0.000  -0.000
 46        0.000   0.000   0.000   0.000
 47        0.000  -0.000   0.000   0.000
 48       -0.000   0.000   0.000  -0.000
 49        0.000  -0.000   0.000  -0.000
 50       -0.000   0.000   0.000   0.000
 51       -0.000   0.000   0.000   0.000
 52        0.000  -0.000   0.000  -0.000
 53        0.000   0.000   0.000   0.000
 54       -0.000  -0.000   0.000  -0.000
 55       -0.000  -0.000   0.000  -0.000
 56        0.000   0.000   0.000   0.000
 57        0.000   0.000   0.000   0.000
 58       -0.000  -0.000   0.000  -0.000
 59       -0.000  -0.000   0.000  -0.000
 60        0.000   0.000   0.000   0.000
 61        0.000   0.000   0.000   0.000
 62       -0.000  -0.000   0.000  -0.000
 63       -0.000  -0.000   0.000  -0.000
 64        0.000   0.000   0.000   0.000
 65        0.000  -0.000   0.000  -0.000
 66       -0.000   0.000   0.000   0.000
 67       -0.000   0.000   0.000   0.000
 68        0.000  -0.000   0.000  -0.000
 69        0.000  -0.000   0.000  -0.000
 70       -0.000   0.000   0.000   0.000
 71       -0.000   0.000   0.000   0.000
 72        0.000  -0.000   0.000  -0.000
 73        0.000   0.001   0.000   0.001
 74       -0.000  -0.001   0.000  -0.001
 75       -0.000  -0.001   0.000  -0.001
 76        0.000   0.001   0.000   0.001
 77       -0.000  -0.000   0.000  -0.000
 78        0.000   0.000   0.000   0.000
 79        0.000   0.000   0.000   0.000
 80       -0.000  -0.000   0.000  -0.000
------------------------------------------------
tot        0.000  -0.000  -0.000  -0.000
 

 total amount of memory used by VASP on root node   208893. kBytes
========================================================================

   base      :      30000. kBytes
   nonlr-proj:      19195. kBytes
   fftplans  :       3677. kBytes
   grid      :      52204. kBytes
   one-center:       2488. kBytes
   wavefun   :     101329. kBytes
 
  
  
 General timing and accounting informations for this job:
 ========================================================
  
                  Total CPU time used (sec):     1104.048
                            User time (sec):     1102.340
                          System time (sec):        1.707
                         Elapsed time (sec):     1140.641
  
                   Maximum memory used (kb):      556924.
                   Average memory used (kb):           0.
  
                          Minor page faults:       888418
                          Major page faults:          104
                 Voluntary context switches:        27424
