 vasp.6.3.0 20Jan22 (build Feb 18 2022 09:23:16) complex                         
 executed on            Scout-CPU date 2022.03.03  13:12:15
 running on  120 total cores
 distrk:  each k-point on   60 cores,    2 groups
 distr:  one band on NCORE=   1 cores,   60 groups


--------------------------------------------------------------------------------------------------------


 INCAR:
   AMIX = 0.1
   ISYM = -1
   IVDW = 11           (DFT-D3 method of method with no damping)
   ISPIN = 2 (Spin polarised DFT)
   ISTART = 1            (Read existing wavefunction
   ICHARG = 11         (Non-self-consistent: GGA/LDA band structures)
   LORBIT = 11
   LASPH = T
   GGA_COMPAT = .FALSE.
   LREAL = .FALSE.       (Projection operators: automatic)
   ENCUT = 850.0      (Cut-off energy for plane wave basis set, in eV)
   ENAUG = 1500.0
   PREC = Accurate     (Precision level)
   LMAXMIX = 4
   LWAVE = F
   LCHARG = F
   ADDGRID = .TRUE.        (Increase grid
   LPLANE = .TRUE.      (Real space distribution
   NWRITE = 2           (Medium-level output)
   KPAR = 2           (Divides k-grid into separate groups)
   NSW = 0          (number of ionic steps)
   ISMEAR = 0            (gaussian smearing method )
   SIGMA = 0.05         (please check the width of the smearing)
   IBRION = -1            (Algorithm: 0-MD
   POTIM = 0.1
   ISIF = 3            (optimize atomic coordinates and lattice parameters)
   EDIFFG = -0.005       (Ionic convergence
   EDIFF = 1.0d-10
   NELM = 50
   NELMIN = 6
   NELMDL = -8
   ALGO = Normal
   MAGMOM = 4 4 4 -4 -4 -4 36*0 18*0 42*0 6*0
   LCALCPOL = T

 POTCAR:    PAW_PBE Mn_pv 02Aug2007               
 POTCAR:    PAW_PBE O 08Apr2002                   
 POTCAR:    PAW_PBE C 08Apr2002                   
 POTCAR:    PAW_PBE H 15Jun2001                   
 POTCAR:    PAW_PBE N 08Apr2002                   
 -----------------------------------------------------------------------------
|                                                                             |
|           W    W    AA    RRRRR   N    N  II  N    N   GGGG   !!!           |
|           W    W   A  A   R    R  NN   N  II  NN   N  G    G  !!!           |
|           W    W  A    A  R    R  N N  N  II  N N  N  G       !!!           |
|           W WW W  AAAAAA  RRRRR   N  N N  II  N  N N  G  GGG   !            |
|           WW  WW  A    A  R   R   N   NN  II  N   NN  G    G                |
|           W    W  A    A  R    R  N    N  II  N    N   GGGG   !!!           |
|                                                                             |
|     For optimal performance we recommend to set                             |
|       NCORE = 2 up to number-of-cores-per-socket                            |
|     NCORE specifies how many cores store one orbital (NPAR=cpu/NCORE).      |
|     This setting can greatly improve the performance of VASP for DFT.       |
|     The default, NCORE=1 might be grossly inefficient on modern             |
|     multi-core architectures or massively parallel machines. Do your        |
|     own testing! More info at https://www.vasp.at/wiki/index.php/NCORE      |
|     Unfortunately you need to use the default for GW and RPA                |
|     calculations (for HF NCORE is supported but not extensively tested      |
|     yet).                                                                   |
|                                                                             |
 -----------------------------------------------------------------------------

 POTCAR:    PAW_PBE Mn_pv 02Aug2007               
   SHA256 =  c79df11ab18a0e3347296df6ded47bb5f18b2e4fbd621d0b5280d2eae24c30a0 Mn_pv/POTCAR          
   COPYR  = (c) Copyright 02Aug2007 Georg Kresse                                                    
   COPYR  = This file is part of the software VASP. Any use, copying, and all other rights are regul
   COPYR  = If you do not have a valid VASP license, you may not use, copy or distribute this file. 
   VRHFIN =Mn: 3p4s3d                                                                               
   LEXCH  = PE                                                                                      
   EATOM  =  2025.2664 eV,  148.8529 Ry                                                             
                                                                                                    
   TITEL  = PAW_PBE Mn_pv 02Aug2007                                                                 
   LULTRA =        F    use ultrasoft PP ?                                                          
   IUNSCR =        1    unscreen: 0-lin 1-nonlin 2-no                                               
   RPACOR =    2.080    partial core radius                                                         
   POMASS =   54.938; ZVAL   =   13.000    mass and valenz                                          
   RCORE  =    2.300    outmost cutoff radius                                                       
   RWIGS  =    2.500; RWIGS  =    1.323    wigner-seitz radius (au A)                               
   ENMAX  =  269.864; ENMIN  =  202.398 eV                                                          
   ICORE  =        3    local potential                                                             
   LCOR   =        T    correct aug charges                                                         
   LPAW   =        T    paw PP                                                                      
   EAUG   =  569.085                                                                                
   DEXC   =    0.000                                                                                
   RMAX   =    2.343    core radius for proj-oper                                                   
   RAUG   =    1.300    factor for augmentation sphere                                              
   RDEP   =    2.338    radius for radial grids                                                     
   RDEPT  =    1.798    core radius for aug-charge                                                  
                                                                                                    
   Atomic configuration                                                                             
    8 entries                                                                                       
     n  l   j            E        occ.                                                              
     1  0  0.50     -6424.8287   2.0000                                                             
     2  0  0.50      -739.1154   2.0000                                                             
     2  1  1.50      -625.3949   6.0000                                                             
     3  0  0.50       -81.6100   2.0000                                                             
     3  1  1.50       -50.4667   6.0000                                                             
     3  2  2.50        -3.3745   6.0000                                                             
     4  0  0.50        -4.1331   1.0000                                                             
     4  3  2.50        -1.3606   0.0000                                                             
   Description                                                                                      
     l       E           TYP  RCUT    TYP  RCUT                                                     
     1    -50.4666628     23  2.000                                                                 
     1     -1.3605826     23  2.000                                                                 
     2     -3.3744729     23  2.300                                                                 
     2     -4.7350555     23  2.300                                                                 
     0     -4.1331431     23  2.300                                                                 
     0      7.6656591     23  2.300                                                                 
     3      9.5240782     23  2.300                                                                 
  local pseudopotential read in
  partial core-charges read in
  partial kinetic energy density read in
  atomic valenz-charges read in
  non local Contribution for L=            1  read in
    real space projection operators read in
  non local Contribution for L=            1  read in
    real space projection operators read in
  non local Contribution for L=            2  read in
    real space projection operators read in
  non local Contribution for L=            2  read in
    real space projection operators read in
  non local Contribution for L=            0  read in
    real space projection operators read in
  non local Contribution for L=            0  read in
    real space projection operators read in
    PAW grid and wavefunctions read in
 
   number of l-projection  operators is LMAX  =            6
   number of lm-projection operators is LMMAX =           18
 
 POTCAR:    PAW_PBE O 08Apr2002                   
   SHA256 =  818f92134a0a090dccd8ba1447fa70422a3b330e708bb4f08108d8ae51209ddf O/POTCAR              
   COPYR  = (c) Copyright 08Apr2002 Georg Kresse                                                    
   COPYR  = This file is part of the software VASP. Any use, copying, and all other rights are regul
   COPYR  = If you do not have a valid VASP license, you may not use, copy or distribute this file. 
   VRHFIN =O: s2p4                                                                                  
   LEXCH  = PE                                                                                      
   EATOM  =   432.3788 eV,   31.7789 Ry                                                             
                                                                                                    
   TITEL  = PAW_PBE O 08Apr2002                                                                     
   LULTRA =        F    use ultrasoft PP ?                                                          
   IUNSCR =        1    unscreen: 0-lin 1-nonlin 2-no                                               
   RPACOR =    1.200    partial core radius                                                         
   POMASS =   16.000; ZVAL   =    6.000    mass and valenz                                          
   RCORE  =    1.520    outmost cutoff radius                                                       
   RWIGS  =    1.550; RWIGS  =    0.820    wigner-seitz radius (au A)                               
   ENMAX  =  400.000; ENMIN  =  300.000 eV                                                          
   ICORE  =        2    local potential                                                             
   LCOR   =        T    correct aug charges                                                         
   LPAW   =        T    paw PP                                                                      
   EAUG   =  605.392                                                                                
   DEXC   =    0.000                                                                                
   RMAX   =    1.553    core radius for proj-oper                                                   
   RAUG   =    1.300    factor for augmentation sphere                                              
   RDEP   =    1.550    radius for radial grids                                                     
   RDEPT  =    1.329    core radius for aug-charge                                                  
                                                                                                    
   Atomic configuration                                                                             
    4 entries                                                                                       
     n  l   j            E        occ.                                                              
     1  0  0.50      -514.6923   2.0000                                                             
     2  0  0.50       -23.9615   2.0000                                                             
     2  1  0.50        -9.0305   4.0000                                                             
     3  2  1.50        -9.5241   0.0000                                                             
   Description                                                                                      
     l       E           TYP  RCUT    TYP  RCUT                                                     
     0    -23.9615318     23  1.200                                                                 
     0     -9.5240782     23  1.200                                                                 
     1     -9.0304911     23  1.520                                                                 
     1      8.1634956     23  1.520                                                                 
     2     -9.5240782      7  1.500                                                                 
  local pseudopotential read in
  partial core-charges read in
  partial kinetic energy density read in
  kinetic energy density of atom read in
  atomic valenz-charges read in
  non local Contribution for L=            0  read in
    real space projection operators read in
  non local Contribution for L=            0  read in
    real space projection operators read in
  non local Contribution for L=            1  read in
    real space projection operators read in
  non local Contribution for L=            1  read in
    real space projection operators read in
    PAW grid and wavefunctions read in
 
   number of l-projection  operators is LMAX  =            4
   number of lm-projection operators is LMMAX =            8
 
 POTCAR:    PAW_PBE C 08Apr2002                   
   SHA256 =  253f7b50bb8d59471dbedb8285d89021f4a42ed1a2c5d38a03a736e69125dd95 C/POTCAR              
   COPYR  = (c) Copyright 08Apr2002 Georg Kresse                                                    
   COPYR  = This file is part of the software VASP. Any use, copying, and all other rights are regul
   COPYR  = If you do not have a valid VASP license, you may not use, copy or distribute this file. 
   VRHFIN =C: s2p2                                                                                  
   LEXCH  = PE                                                                                      
   EATOM  =   147.1560 eV,   10.8157 Ry                                                             
                                                                                                    
   TITEL  = PAW_PBE C 08Apr2002                                                                     
   LULTRA =        F    use ultrasoft PP ?                                                          
   IUNSCR =        1    unscreen: 0-lin 1-nonlin 2-no                                               
   RPACOR =    1.200    partial core radius                                                         
   POMASS =   12.011; ZVAL   =    4.000    mass and valenz                                          
   RCORE  =    1.500    outmost cutoff radius                                                       
   RWIGS  =    1.630; RWIGS  =    0.863    wigner-seitz radius (au A)                               
   ENMAX  =  400.000; ENMIN  =  300.000 eV                                                          
   ICORE  =        2    local potential                                                             
   LCOR   =        T    correct aug charges                                                         
   LPAW   =        T    paw PP                                                                      
   EAUG   =  644.873                                                                                
   DEXC   =    0.000                                                                                
   RMAX   =    1.529    core radius for proj-oper                                                   
   RAUG   =    1.300    factor for augmentation sphere                                              
   RDEP   =    1.501    radius for radial grids                                                     
   RDEPT  =    1.300    core radius for aug-charge                                                  
                                                                                                    
   Atomic configuration                                                                             
    4 entries                                                                                       
     n  l   j            E        occ.                                                              
     1  0  0.50      -273.3789   2.0000                                                             
     2  0  0.50       -13.7508   2.0000                                                             
     2  1  0.50        -5.2854   2.0000                                                             
     3  2  1.50        -5.4423   0.0000                                                             
   Description                                                                                      
     l       E           TYP  RCUT    TYP  RCUT                                                     
     0    -13.7508458     23  1.200                                                                 
     0     -8.2022199     23  1.200                                                                 
     1     -5.2854383     23  1.500                                                                 
     1     34.0145650     23  1.500                                                                 
     2     -5.4423304      7  1.500                                                                 
  local pseudopotential read in
  partial core-charges read in
  partial kinetic energy density read in
  atomic valenz-charges read in
  non local Contribution for L=            0  read in
    real space projection operators read in
  non local Contribution for L=            0  read in
    real space projection operators read in
  non local Contribution for L=            1  read in
    real space projection operators read in
  non local Contribution for L=            1  read in
    real space projection operators read in
    PAW grid and wavefunctions read in
 
   number of l-projection  operators is LMAX  =            4
   number of lm-projection operators is LMMAX =            8
 
 POTCAR:    PAW_PBE H 15Jun2001                   
   SHA256 =  030f79b5d3ab3cf0e668861823c8fb652ff669f3e15e46930bd03bfd63a607b6 H/POTCAR              
   COPYR  = (c) Copyright 15Jun2001 Georg Kresse                                                    
   COPYR  = This file is part of the software VASP. Any use, copying, and all other rights are regul
   COPYR  = If you do not have a valid VASP license, you may not use, copy or distribute this file. 
   VRHFIN =H: ultrasoft test                                                                        
   LEXCH  = PE                                                                                      
   EATOM  =    12.4884 eV,    0.9179 Ry                                                             
                                                                                                    
   TITEL  = PAW_PBE H 15Jun2001                                                                     
   LULTRA =        F    use ultrasoft PP ?                                                          
   IUNSCR =        0    unscreen: 0-lin 1-nonlin 2-no                                               
   RPACOR =    0.000    partial core radius                                                         
   POMASS =    1.000; ZVAL   =    1.000    mass and valenz                                          
   RCORE  =    1.100    outmost cutoff radius                                                       
   RWIGS  =    0.700; RWIGS  =    0.370    wigner-seitz radius (au A)                               
   ENMAX  =  250.000; ENMIN  =  200.000 eV                                                          
   RCLOC  =    0.701    cutoff for local pot                                                        
   LCOR   =        T    correct aug charges                                                         
   LPAW   =        T    paw PP                                                                      
   EAUG   =  400.000                                                                                
   RMAX   =    1.123    core radius for proj-oper                                                   
   RAUG   =    1.200    factor for augmentation sphere                                              
   RDEP   =    1.112    radius for radial grids                                                     
   RDEPT  =    0.926    core radius for aug-charge                                                  
                                                                                                    
   Atomic configuration                                                                             
    2 entries                                                                                       
     n  l   j            E        occ.                                                              
     1  0  0.50        -6.4927   1.0000                                                             
     2  1  0.50        -3.4015   0.0000                                                             
   Description                                                                                      
     l       E           TYP  RCUT    TYP  RCUT                                                     
     0     -6.4927494     23  1.100                                                                 
     0      6.8029130     23  1.100                                                                 
     1     -4.0817478     23  1.100                                                                 
  local pseudopotential read in
  atomic valenz-charges read in
  non local Contribution for L=            0  read in
    real space projection operators read in
  non local Contribution for L=            0  read in
    real space projection operators read in
  non local Contribution for L=            1  read in
    real space projection operators read in
    PAW grid and wavefunctions read in
 
   number of l-projection  operators is LMAX  =            3
   number of lm-projection operators is LMMAX =            5
 
 POTCAR:    PAW_PBE N 08Apr2002                   
   SHA256 =  e053789ff3a61a86a1b75d8a110fcc91f86041011e7b0817c7c99e4e8a6349d7 N/POTCAR              
   COPYR  = (c) Copyright 08Apr2002 Georg Kresse                                                    
   COPYR  = This file is part of the software VASP. Any use, copying, and all other rights are regul
   COPYR  = If you do not have a valid VASP license, you may not use, copy or distribute this file. 
   VRHFIN =N: s2p3                                                                                  
   LEXCH  = PE                                                                                      
   EATOM  =   264.5486 eV,   19.4438 Ry                                                             
                                                                                                    
   TITEL  = PAW_PBE N 08Apr2002                                                                     
   LULTRA =        F    use ultrasoft PP ?                                                          
   IUNSCR =        1    unscreen: 0-lin 1-nonlin 2-no                                               
   RPACOR =    1.200    partial core radius                                                         
   POMASS =   14.001; ZVAL   =    5.000    mass and valenz                                          
   RCORE  =    1.500    outmost cutoff radius                                                       
   RWIGS  =    1.400; RWIGS  =    0.741    wigner-seitz radius (au A)                               
   ENMAX  =  400.000; ENMIN  =  300.000 eV                                                          
   ICORE  =        2    local potential                                                             
   LCOR   =        T    correct aug charges                                                         
   LPAW   =        T    paw PP                                                                      
   EAUG   =  627.112                                                                                
   DEXC   =    0.000                                                                                
   RMAX   =    1.529    core radius for proj-oper                                                   
   RAUG   =    1.300    factor for augmentation sphere                                              
   RDEP   =    1.514    radius for radial grids                                                     
   RDEPT  =    1.338    core radius for aug-charge                                                  
                                                                                                    
   Atomic configuration                                                                             
    4 entries                                                                                       
     n  l   j            E        occ.                                                              
     1  0  0.50      -384.7179   2.0000                                                             
     2  0  0.50       -18.5828   2.0000                                                             
     2  1  0.50        -7.0898   3.0000                                                             
     3  2  1.50        -6.8029   0.0000                                                             
   Description                                                                                      
     l       E           TYP  RCUT    TYP  RCUT                                                     
     0    -18.5828119     23  1.200                                                                 
     0    -13.5018863     23  1.200                                                                 
     1     -7.0897853     23  1.500                                                                 
     1      9.5240782     23  1.500                                                                 
     2     -6.8029130      7  1.500                                                                 
  local pseudopotential read in
  partial core-charges read in
  partial kinetic energy density read in
  atomic valenz-charges read in
  non local Contribution for L=            0  read in
    real space projection operators read in
  non local Contribution for L=            0  read in
    real space projection operators read in
  non local Contribution for L=            1  read in
    real space projection operators read in
  non local Contribution for L=            1  read in
    real space projection operators read in
    PAW grid and wavefunctions read in
 
   number of l-projection  operators is LMAX  =            4
   number of lm-projection operators is LMMAX =            8
 
 -----------------------------------------------------------------------------
|                                                                             |
|               ----> ADVICE to this user running VASP <----                  |
|                                                                             |
|     You have a (more or less) 'large supercell' and for larger cells it     |
|     might be more efficient to use real-space projection operators.         |
|     Therefore, try LREAL= Auto in the INCAR file.                           |
|     Mind: For very accurate calculation, you might also keep the            |
|     reciprocal projection scheme (i.e. LREAL=.FALSE.).                      |
|                                                                             |
 -----------------------------------------------------------------------------

  PAW_PBE Mn_pv 02Aug2007               :
 energy of atom  1       EATOM=-2025.2664
 kinetic energy error for atom=    0.0010 (will be added to EATOM!!)
  PAW_PBE O 08Apr2002                   :
 energy of atom  2       EATOM= -432.3788
 kinetic energy error for atom=    0.0031 (will be added to EATOM!!)
  PAW_PBE C 08Apr2002                   :
 energy of atom  3       EATOM= -147.1560
 kinetic energy error for atom=    0.0012 (will be added to EATOM!!)
  PAW_PBE H 15Jun2001                   :
 energy of atom  4       EATOM=  -12.4884
 kinetic energy error for atom=    0.0002 (will be added to EATOM!!)
  PAW_PBE N 08Apr2002                   :
 energy of atom  5       EATOM= -264.5486
 kinetic energy error for atom=    0.0021 (will be added to EATOM!!)
 
 
 POSCAR: critic2 | Mn-110.cif
  positions in direct lattice
  velocities in cartesian coordinates
 exchange correlation table for  LEXCH =        8
   RHO(1)=    0.500       N(1)  =     2000
   RHO(2)=  100.500       N(2)  =     4000
 


--------------------------------------------------------------------------------------------------------


 ion  position               nearest neighbor table
   1  0.337  0.329  0.588-   7 2.17  28 2.18  31 2.19  41 2.20  18 2.20  19 2.22
   2  0.671  0.008  0.588-   8 2.17  29 2.18  32 2.19  42 2.20  16 2.20  20 2.22
   3  0.992  0.663  0.588-   9 2.17  30 2.18  33 2.19  40 2.20  17 2.20  21 2.22
   4  0.663  0.671  0.088-  10 2.17  25 2.18  34 2.19  38 2.20  15 2.20  22 2.22
   5  0.329  0.992  0.088-  11 2.17  26 2.18  35 2.19  39 2.20  13 2.20  23 2.22
   6  0.008  0.337  0.088-  12 2.17  27 2.18  36 2.19  37 2.20  14 2.20  24 2.22
   7  0.425  0.256  0.442-  43 1.28   1 2.17
   8  0.744  0.169  0.442-  44 1.28   2 2.17
   9  0.831  0.575  0.442-  45 1.28   3 2.17
  10  0.575  0.744  0.942-  46 1.28   4 2.17
  11  0.256  0.831  0.942-  47 1.28   5 2.17
  12  0.169  0.425  0.942-  48 1.28   6 2.17
  13  0.434  0.158  0.230-  43 1.26   5 2.20
  14  0.842  0.276  0.230-  44 1.26   6 2.20
  15  0.724  0.566  0.230-  45 1.26   4 2.20
  16  0.566  0.842  0.730-  46 1.26   2 2.20
  17  0.158  0.724  0.730-  47 1.26   3 2.20
  18  0.276  0.434  0.730-  48 1.26   1 2.20
  19  0.399  0.491  0.437-  49 1.28   1 2.22
  20  0.509  0.908  0.437-  50 1.28   2 2.22
  21  0.092  0.601  0.437-  51 1.28   3 2.22
  22  0.601  0.509  0.937-  52 1.28   4 2.22
  23  0.491  0.092  0.937-  53 1.28   5 2.22
  24  0.908  0.399  0.937-  54 1.28   6 2.22
  25  0.498  0.603  0.228-  49 1.27   4 2.18
  26  0.397  0.894  0.228-  50 1.27   5 2.18
  27  0.106  0.502  0.228-  51 1.27   6 2.18
  28  0.502  0.397  0.728-  52 1.27   1 2.18
  29  0.603  0.106  0.728-  53 1.27   2 2.18
  30  0.894  0.498  0.728-  54 1.27   3 2.18
  31  0.166  0.229  0.455-  55 1.27   1 2.19
  32  0.771  0.938  0.455-  56 1.27   2 2.19
  33  0.062  0.834  0.454-  57 1.27   3 2.19
  34  0.834  0.771  0.955-  58 1.27   4 2.19
  35  0.229  0.062  0.955-  59 1.27   5 2.19
  36  0.938  0.166  0.954-  60 1.27   6 2.19
  37  0.072  0.242  0.242-  55 1.28   6 2.20
  38  0.758  0.830  0.242-  56 1.28   4 2.20
  39  0.170  0.928  0.242-  57 1.28   5 2.20
  40  0.928  0.758  0.742-  58 1.28   3 2.20
  41  0.242  0.170  0.742-  59 1.28   1 2.20
  42  0.830  0.072  0.742-  60 1.28   2 2.20
  43  0.377  0.190  0.322-  61 1.11  13 1.26   7 1.28
  44  0.810  0.187  0.322-  62 1.11  14 1.26   8 1.28
  45  0.813  0.623  0.322-  63 1.11  15 1.26   9 1.28
  46  0.623  0.810  0.822-  64 1.11  16 1.26  10 1.28
  47  0.190  0.813  0.822-  65 1.11  17 1.26  11 1.28
  48  0.187  0.377  0.822-  66 1.11  18 1.26  12 1.28
  49  0.465  0.512  0.316-  67 1.11  25 1.27  19 1.28
  50  0.488  0.953  0.316-  68 1.11  26 1.27  20 1.28
  51  0.047  0.535  0.316-  69 1.11  27 1.27  21 1.28
  52  0.535  0.488  0.816-  70 1.11  28 1.27  22 1.28
  53  0.512  0.047  0.816-  71 1.11  29 1.27  23 1.28
  54  0.953  0.465  0.816-  72 1.11  30 1.27  24 1.28
  55  0.132  0.286  0.366-  73 1.11  31 1.27  37 1.28
  56  0.714  0.846  0.366-  74 1.11  32 1.27  38 1.28
  57  0.154  0.868  0.366-  75 1.11  33 1.27  39 1.28
  58  0.868  0.714  0.866-  76 1.11  34 1.27  40 1.28
  59  0.286  0.154  0.866-  77 1.11  35 1.27  41 1.28
  60  0.846  0.132  0.866-  78 1.11  36 1.27  42 1.28
  61  0.279  0.159  0.300-  43 1.11
  62  0.841  0.120  0.300-  44 1.11
  63  0.880  0.721  0.300-  45 1.11
  64  0.721  0.841  0.800-  46 1.11
  65  0.159  0.880  0.800-  47 1.11
  66  0.120  0.279  0.800-  48 1.11
  67  0.495  0.445  0.289-  49 1.11
  68  0.555  0.050  0.289-  50 1.11
  69  0.950  0.505  0.289-  51 1.11
  70  0.505  0.555  0.789-  52 1.11
  71  0.445  0.950  0.789-  53 1.11
  72  0.050  0.495  0.789-  54 1.11
  73  0.156  0.381  0.396-  55 1.11
  74  0.619  0.775  0.396-  56 1.11
  75  0.225  0.844  0.396-  57 1.11
  76  0.844  0.619  0.896-  58 1.11
  77  0.381  0.225  0.896-  59 1.11
  78  0.775  0.156  0.896-  60 1.11
  79  0.577  0.302  0.496- 103 1.05
  80  0.698  0.275  0.496- 103 1.05
  81  0.725  0.423  0.496- 103 1.05
  82  0.423  0.698  0.996- 104 1.05
  83  0.302  0.725  0.996- 104 1.05
  84  0.275  0.577  0.996- 104 1.05
  85  0.667  0.333  0.652- 103 1.02
  86  0.333  0.667  0.152- 104 1.02
  87  0.359  0.603  0.492- 105 1.05
  88  0.397  0.756  0.492- 105 1.05
  89  0.244  0.641  0.492- 105 1.05
  90  0.641  0.397  0.992- 106 1.05
  91  0.603  0.244  0.992- 106 1.05
  92  0.756  0.359  0.992- 106 1.05
  93  0.333  0.667  0.648- 105 1.02
  94  0.667  0.333  0.148- 106 1.02
  95  0.030  0.090  0.186- 107 1.05
  96  0.910  0.940  0.186- 107 1.05
  97  0.060  0.970  0.186- 107 1.05
  98  0.970  0.910  0.686- 108 1.05
  99  0.090  0.060  0.686- 108 1.05
 100  0.940  0.030  0.686- 108 1.05
 101  0.000  1.000  0.030- 107 1.02
 102  1.000  0.000  0.530- 108 1.02
 103  0.667  0.333  0.535-  85 1.02  80 1.05  79 1.05  81 1.05
 104  0.333  0.667  0.035-  86 1.02  83 1.05  82 1.05  84 1.05
 105  0.333  0.667  0.531-  93 1.02  87 1.05  88 1.05  89 1.05
 106  0.667  0.333  0.031-  94 1.02  90 1.05  91 1.05  92 1.05
 107  1.000  0.000  0.147- 101 1.02  95 1.05  96 1.05  97 1.05
 108  0.000  1.000  0.647- 102 1.02  98 1.05  99 1.05 100 1.05
 

IMPORTANT INFORMATION: All symmetrisations will be switched off!
NOSYMM: (Re-)initialisation of all symmetry stuff for point group C_1.


----------------------------------------------------------------------------------------

                                     Primitive cell                                     

  volume of cell :    1189.0981

  direct lattice vectors                    reciprocal lattice vectors
    12.553725422 -0.000003521  0.000000000     0.079657642  0.045990375 -0.000000000
    -6.276865505 10.871846549  0.000000000     0.000000026  0.091980710 -0.000000000
     0.000000000  0.000000000  8.712480297    -0.000000000 -0.000000000  0.114777878

  length of vectors
    12.553725422 12.553728050  8.712480297     0.091980729  0.091980710  0.114777878

  position of ions in fractional coordinates (direct lattice)
     0.336671716  0.328742151  0.588166739
     0.671257177  0.007929051  0.588166512
     0.992071197  0.663328724  0.588166043
     0.663328284  0.671257849  0.088166739
     0.328742823  0.992070949  0.088166512
     0.007928803  0.336671276  0.088166043
     0.424690044  0.255640900  0.441595911
     0.744358829  0.169047920  0.441597162
     0.830951203  0.575311040  0.441595916
     0.575309956  0.744359100  0.941595911
     0.255641171  0.830952080  0.941597162
     0.169048797  0.424688960  0.941595916
     0.433641358  0.157601444  0.230430806
     0.842397289  0.276038733  0.230430732
     0.723960978  0.566358908  0.230431463
     0.566358642  0.842398556  0.730430806
     0.157602711  0.723961267  0.730430732
     0.276039022  0.433641092  0.730431463
     0.399237656  0.491392121  0.436656821
     0.508609069  0.907845974  0.436656465
     0.092153111  0.600762685  0.436655683
     0.600762344  0.508607879  0.936656821
     0.491390931  0.092154026  0.936656465
     0.907846889  0.399237315  0.936655683
     0.497648195  0.603261312  0.228469213
     0.396738395  0.894387005  0.228467963
     0.105612401  0.502351265  0.228467451
     0.502351805  0.396738688  0.728469213
     0.603261605  0.105612995  0.728467963
     0.894387599  0.497648735  0.728467451
     0.166497435  0.228671809  0.454500666
     0.771328310  0.937826011  0.454500874
     0.062175338  0.833503460  0.454499355
     0.833502565  0.771328191  0.954500666
     0.228671690  0.062173989  0.954500874
     0.937824662  0.166496540  0.954499355
     0.072218746  0.241791768  0.242052377
     0.758208116  0.830427059  0.242053345
     0.169573240  0.927780322  0.242054259
     0.927781254  0.758208232  0.742052377
     0.241791884  0.169572941  0.742053345
     0.830426760  0.072219678  0.742054259
     0.376767259  0.189562246  0.322296078
     0.810437773  0.187203305  0.322295513
     0.812795528  0.623233023  0.322296630
     0.623232741  0.810437754  0.822296078
     0.189562227  0.812796695  0.822295513
     0.187204472  0.376766977  0.822296630
     0.464725776  0.511783358  0.316418230
     0.488216457  0.952942103  0.316417290
     0.047058620  0.535274744  0.316418666
     0.535274224  0.488216642  0.816418230
     0.511783543  0.047057897  0.816417290
     0.952941380  0.464725256  0.816418666
     0.132371067  0.285958731  0.366161540
     0.714041778  0.846412479  0.366161068
     0.153587720  0.867630111  0.366159870
     0.867628933  0.714041269  0.866161540
     0.285958222  0.153587521  0.866161068
     0.846412280  0.132369889  0.866159870
     0.278945585  0.159300568  0.300005331
     0.840698933  0.119645069  0.300004858
     0.880355200  0.721054432  0.300005044
     0.721054415  0.840699432  0.800005331
     0.159301067  0.880354931  0.800004858
     0.119644800  0.278945568  0.800005044
     0.495456327  0.445344620  0.289202303
     0.554656156  0.050112844  0.289200871
     0.949885959  0.504542121  0.289201616
     0.504543673  0.554655380  0.789202303
     0.445343844  0.949887156  0.789200871
     0.050114041  0.495457879  0.789201616
     0.156176867  0.380995539  0.396187062
     0.619004318  0.775181012  0.396187659
     0.224819121  0.843823294  0.396187678
     0.843823133  0.619004461  0.896187062
     0.380995682  0.224818988  0.896187659
     0.775180879  0.156176706  0.896187678
     0.576576160  0.301511658  0.496252597
     0.698488041  0.275064503  0.496248521
     0.724937092  0.423423825  0.496251991
     0.423423840  0.698488342  0.996252597
     0.301511959  0.724935497  0.996248521
     0.275062908  0.576576175  0.996251991
     0.666666616  0.333333722  0.651963030
     0.333333384  0.666666278  0.151963030
     0.358625237  0.603082416  0.492048157
     0.396916702  0.755543475  0.492045025
     0.244456700  0.641374971  0.492043930
     0.641374763  0.396917584  0.992048157
     0.603083298  0.244456525  0.992045025
     0.755543300  0.358625029  0.992043930
     0.333333059  0.666666979  0.647951892
     0.666666941  0.333333021  0.147951892
     0.029677891  0.089798761  0.185576759
     0.910201281  0.939879122  0.185577163
     0.060121451  0.970322309  0.185577427
     0.970322109  0.910201239  0.685576759
     0.089798719  0.060120878  0.685577163
     0.939878549  0.029677691  0.685577427
     0.000000063  0.999999730  0.029949120
     0.999999937  0.000000270  0.529949120
     0.666667067  0.333333113  0.534615865
     0.333332933  0.666666887  0.034615865
     0.333333284  0.666667068  0.530508556
     0.666666716  0.333332932  0.030508556
     0.999999729  0.000000245  0.147326904
     0.000000271  0.999999755  0.647326904

  ion indices of the primitive-cell ions
   primitive index   ion index
                 1           1
                 2           2
                 3           3
                 4           4
                 5           5
                 6           6
                 7           7
                 8           8
                 9           9
                10          10
                11          11
                12          12
                13          13
                14          14
                15          15
                16          16
                17          17
                18          18
                19          19
                20          20
                21          21
                22          22
                23          23
                24          24
                25          25
                26          26
                27          27
                28          28
                29          29
                30          30
                31          31
                32          32
                33          33
                34          34
                35          35
                36          36
                37          37
                38          38
                39          39
                40          40
                41          41
                42          42
                43          43
                44          44
                45          45
                46          46
                47          47
                48          48
                49          49
                50          50
                51          51
                52          52
                53          53
                54          54
                55          55
                56          56
                57          57
                58          58
                59          59
                60          60
                61          61
                62          62
                63          63
                64          64
                65          65
                66          66
                67          67
                68          68
                69          69
                70          70
                71          71
                72          72
                73          73
                74          74
                75          75
                76          76
                77          77
                78          78
                79          79
                80          80
                81          81
                82          82
                83          83
                84          84
                85          85
                86          86
                87          87
                88          88
                89          89
                90          90
                91          91
                92          92
                93          93
                94          94
                95          95
                96          96
                97          97
                98          98
                99          99
               100         100
               101         101
               102         102
               103         103
               104         104
               105         105
               106         106
               107         107
               108         108

----------------------------------------------------------------------------------------

 
 
 KPOINTS: K-Spacing Value to Generate K-Mesh: 0.04

Automatic generation of k-mesh.
 Grid dimensions read from file:
 generate k-points for:    4    4    5

 Generating k-lattice:

  Cartesian coordinates                     Fractional coordinates (reciprocal lattice)
     0.019914410  0.011497594 -0.000000000     0.250000000 -0.000000000  0.000000000
     0.000000006  0.022995177 -0.000000000    -0.000000000  0.250000000  0.000000000
    -0.000000000 -0.000000000  0.022955576     0.000000000  0.000000000  0.200000000

  Length of vectors
     0.022995182  0.022995177  0.022955576

  Shift w.r.t. Gamma in fractional coordinates (k-lattice)
     0.000000000  0.000000000  0.000000000

 
 Subroutine IBZKPT returns following result:
 ===========================================
 
 Found     80 irreducible k-points:
 
 Following reciprocal coordinates:
            Coordinates               Weight
  0.000000  0.000000  0.000000      1.000000
  0.250000  0.000000  0.000000      1.000000
  0.500000  0.000000  0.000000      1.000000
 -0.250000  0.000000  0.000000      1.000000
  0.000000  0.250000  0.000000      1.000000
  0.250000  0.250000  0.000000      1.000000
  0.500000  0.250000  0.000000      1.000000
 -0.250000  0.250000  0.000000      1.000000
  0.000000  0.500000  0.000000      1.000000
  0.250000  0.500000  0.000000      1.000000
  0.500000  0.500000  0.000000      1.000000
 -0.250000  0.500000  0.000000      1.000000
  0.000000 -0.250000  0.000000      1.000000
  0.250000 -0.250000  0.000000      1.000000
  0.500000 -0.250000  0.000000      1.000000
 -0.250000 -0.250000  0.000000      1.000000
  0.000000  0.000000  0.200000      1.000000
  0.250000  0.000000  0.200000      1.000000
  0.500000  0.000000  0.200000      1.000000
 -0.250000  0.000000  0.200000      1.000000
  0.000000  0.250000  0.200000      1.000000
  0.250000  0.250000  0.200000      1.000000
  0.500000  0.250000  0.200000      1.000000
 -0.250000  0.250000  0.200000      1.000000
  0.000000  0.500000  0.200000      1.000000
  0.250000  0.500000  0.200000      1.000000
  0.500000  0.500000  0.200000      1.000000
 -0.250000  0.500000  0.200000      1.000000
  0.000000 -0.250000  0.200000      1.000000
  0.250000 -0.250000  0.200000      1.000000
  0.500000 -0.250000  0.200000      1.000000
 -0.250000 -0.250000  0.200000      1.000000
  0.000000  0.000000  0.400000      1.000000
  0.250000  0.000000  0.400000      1.000000
  0.500000  0.000000  0.400000      1.000000
 -0.250000  0.000000  0.400000      1.000000
  0.000000  0.250000  0.400000      1.000000
  0.250000  0.250000  0.400000      1.000000
  0.500000  0.250000  0.400000      1.000000
 -0.250000  0.250000  0.400000      1.000000
  0.000000  0.500000  0.400000      1.000000
  0.250000  0.500000  0.400000      1.000000
  0.500000  0.500000  0.400000      1.000000
 -0.250000  0.500000  0.400000      1.000000
  0.000000 -0.250000  0.400000      1.000000
  0.250000 -0.250000  0.400000      1.000000
  0.500000 -0.250000  0.400000      1.000000
 -0.250000 -0.250000  0.400000      1.000000
  0.000000  0.000000 -0.400000      1.000000
  0.250000  0.000000 -0.400000      1.000000
  0.500000  0.000000 -0.400000      1.000000
 -0.250000  0.000000 -0.400000      1.000000
  0.000000  0.250000 -0.400000      1.000000
  0.250000  0.250000 -0.400000      1.000000
  0.500000  0.250000 -0.400000      1.000000
 -0.250000  0.250000 -0.400000      1.000000
  0.000000  0.500000 -0.400000      1.000000
  0.250000  0.500000 -0.400000      1.000000
  0.500000  0.500000 -0.400000      1.000000
 -0.250000  0.500000 -0.400000      1.000000
  0.000000 -0.250000 -0.400000      1.000000
  0.250000 -0.250000 -0.400000      1.000000
  0.500000 -0.250000 -0.400000      1.000000
 -0.250000 -0.250000 -0.400000      1.000000
  0.000000  0.000000 -0.200000      1.000000
  0.250000  0.000000 -0.200000      1.000000
  0.500000  0.000000 -0.200000      1.000000
 -0.250000  0.000000 -0.200000      1.000000
  0.000000  0.250000 -0.200000      1.000000
  0.250000  0.250000 -0.200000      1.000000
  0.500000  0.250000 -0.200000      1.000000
 -0.250000  0.250000 -0.200000      1.000000
  0.000000  0.500000 -0.200000      1.000000
  0.250000  0.500000 -0.200000      1.000000
  0.500000  0.500000 -0.200000      1.000000
 -0.250000  0.500000 -0.200000      1.000000
  0.000000 -0.250000 -0.200000      1.000000
  0.250000 -0.250000 -0.200000      1.000000
  0.500000 -0.250000 -0.200000      1.000000
 -0.250000 -0.250000 -0.200000      1.000000
 
 Following cartesian coordinates:
            Coordinates               Weight
  0.000000  0.000000  0.000000      1.000000
  0.019914  0.011498  0.000000      1.000000
  0.039829  0.022995  0.000000      1.000000
 -0.019914 -0.011498  0.000000      1.000000
  0.000000  0.022995  0.000000      1.000000
  0.019914  0.034493  0.000000      1.000000
  0.039829  0.045990  0.000000      1.000000
 -0.019914  0.011498  0.000000      1.000000
  0.000000  0.045990  0.000000      1.000000
  0.019914  0.057488  0.000000      1.000000
  0.039829  0.068986  0.000000      1.000000
 -0.019914  0.034493  0.000000      1.000000
 -0.000000 -0.022995  0.000000      1.000000
  0.019914 -0.011498  0.000000      1.000000
  0.039829  0.000000  0.000000      1.000000
 -0.019914 -0.034493  0.000000      1.000000
  0.000000  0.000000  0.022956      1.000000
  0.019914  0.011498  0.022956      1.000000
  0.039829  0.022995  0.022956      1.000000
 -0.019914 -0.011498  0.022956      1.000000
  0.000000  0.022995  0.022956      1.000000
  0.019914  0.034493  0.022956      1.000000
  0.039829  0.045990  0.022956      1.000000
 -0.019914  0.011498  0.022956      1.000000
  0.000000  0.045990  0.022956      1.000000
  0.019914  0.057488  0.022956      1.000000
  0.039829  0.068986  0.022956      1.000000
 -0.019914  0.034493  0.022956      1.000000
 -0.000000 -0.022995  0.022956      1.000000
  0.019914 -0.011498  0.022956      1.000000
  0.039829  0.000000  0.022956      1.000000
 -0.019914 -0.034493  0.022956      1.000000
  0.000000  0.000000  0.045911      1.000000
  0.019914  0.011498  0.045911      1.000000
  0.039829  0.022995  0.045911      1.000000
 -0.019914 -0.011498  0.045911      1.000000
  0.000000  0.022995  0.045911      1.000000
  0.019914  0.034493  0.045911      1.000000
  0.039829  0.045990  0.045911      1.000000
 -0.019914  0.011498  0.045911      1.000000
  0.000000  0.045990  0.045911      1.000000
  0.019914  0.057488  0.045911      1.000000
  0.039829  0.068986  0.045911      1.000000
 -0.019914  0.034493  0.045911      1.000000
 -0.000000 -0.022995  0.045911      1.000000
  0.019914 -0.011498  0.045911      1.000000
  0.039829  0.000000  0.045911      1.000000
 -0.019914 -0.034493  0.045911      1.000000
  0.000000  0.000000 -0.045911      1.000000
  0.019914  0.011498 -0.045911      1.000000
  0.039829  0.022995 -0.045911      1.000000
 -0.019914 -0.011498 -0.045911      1.000000
  0.000000  0.022995 -0.045911      1.000000
  0.019914  0.034493 -0.045911      1.000000
  0.039829  0.045990 -0.045911      1.000000
 -0.019914  0.011498 -0.045911      1.000000
  0.000000  0.045990 -0.045911      1.000000
  0.019914  0.057488 -0.045911      1.000000
  0.039829  0.068986 -0.045911      1.000000
 -0.019914  0.034493 -0.045911      1.000000
 -0.000000 -0.022995 -0.045911      1.000000
  0.019914 -0.011498 -0.045911      1.000000
  0.039829  0.000000 -0.045911      1.000000
 -0.019914 -0.034493 -0.045911      1.000000
  0.000000  0.000000 -0.022956      1.000000
  0.019914  0.011498 -0.022956      1.000000
  0.039829  0.022995 -0.022956      1.000000
 -0.019914 -0.011498 -0.022956      1.000000
  0.000000  0.022995 -0.022956      1.000000
  0.019914  0.034493 -0.022956      1.000000
  0.039829  0.045990 -0.022956      1.000000
 -0.019914  0.011498 -0.022956      1.000000
  0.000000  0.045990 -0.022956      1.000000
  0.019914  0.057488 -0.022956      1.000000
  0.039829  0.068986 -0.022956      1.000000
 -0.019914  0.034493 -0.022956      1.000000
 -0.000000 -0.022995 -0.022956      1.000000
  0.019914 -0.011498 -0.022956      1.000000
  0.039829  0.000000 -0.022956      1.000000
 -0.019914 -0.034493 -0.022956      1.000000
 
 WARNING: full set of k-points will be restricted to regular points only.

 
 Subroutine IBZKPT_HF returns following result:
 ==============================================
 
 Found     80 k-points in 1st BZ
 the following     80 k-points will be used (e.g. in the exchange kernel)
 Following reciprocal coordinates:   # in IRBZ
  0.000000  0.000000  0.000000    0.01250000   1 t-inv F
  0.250000  0.000000  0.000000    0.01250000   2 t-inv F
  0.500000  0.000000  0.000000    0.01250000   3 t-inv F
 -0.250000  0.000000  0.000000    0.01250000   4 t-inv F
  0.000000  0.250000  0.000000    0.01250000   5 t-inv F
  0.250000  0.250000  0.000000    0.01250000   6 t-inv F
  0.500000  0.250000  0.000000    0.01250000   7 t-inv F
 -0.250000  0.250000  0.000000    0.01250000   8 t-inv F
  0.000000  0.500000  0.000000    0.01250000   9 t-inv F
  0.250000  0.500000  0.000000    0.01250000  10 t-inv F
  0.500000  0.500000  0.000000    0.01250000  11 t-inv F
 -0.250000  0.500000  0.000000    0.01250000  12 t-inv F
  0.000000 -0.250000  0.000000    0.01250000  13 t-inv F
  0.250000 -0.250000  0.000000    0.01250000  14 t-inv F
  0.500000 -0.250000  0.000000    0.01250000  15 t-inv F
 -0.250000 -0.250000  0.000000    0.01250000  16 t-inv F
  0.000000  0.000000  0.200000    0.01250000  17 t-inv F
  0.250000  0.000000  0.200000    0.01250000  18 t-inv F
  0.500000  0.000000  0.200000    0.01250000  19 t-inv F
 -0.250000  0.000000  0.200000    0.01250000  20 t-inv F
  0.000000  0.250000  0.200000    0.01250000  21 t-inv F
  0.250000  0.250000  0.200000    0.01250000  22 t-inv F
  0.500000  0.250000  0.200000    0.01250000  23 t-inv F
 -0.250000  0.250000  0.200000    0.01250000  24 t-inv F
  0.000000  0.500000  0.200000    0.01250000  25 t-inv F
  0.250000  0.500000  0.200000    0.01250000  26 t-inv F
  0.500000  0.500000  0.200000    0.01250000  27 t-inv F
 -0.250000  0.500000  0.200000    0.01250000  28 t-inv F
  0.000000 -0.250000  0.200000    0.01250000  29 t-inv F
  0.250000 -0.250000  0.200000    0.01250000  30 t-inv F
  0.500000 -0.250000  0.200000    0.01250000  31 t-inv F
 -0.250000 -0.250000  0.200000    0.01250000  32 t-inv F
  0.000000  0.000000  0.400000    0.01250000  33 t-inv F
  0.250000  0.000000  0.400000    0.01250000  34 t-inv F
  0.500000  0.000000  0.400000    0.01250000  35 t-inv F
 -0.250000  0.000000  0.400000    0.01250000  36 t-inv F
  0.000000  0.250000  0.400000    0.01250000  37 t-inv F
  0.250000  0.250000  0.400000    0.01250000  38 t-inv F
  0.500000  0.250000  0.400000    0.01250000  39 t-inv F
 -0.250000  0.250000  0.400000    0.01250000  40 t-inv F
  0.000000  0.500000  0.400000    0.01250000  41 t-inv F
  0.250000  0.500000  0.400000    0.01250000  42 t-inv F
  0.500000  0.500000  0.400000    0.01250000  43 t-inv F
 -0.250000  0.500000  0.400000    0.01250000  44 t-inv F
  0.000000 -0.250000  0.400000    0.01250000  45 t-inv F
  0.250000 -0.250000  0.400000    0.01250000  46 t-inv F
  0.500000 -0.250000  0.400000    0.01250000  47 t-inv F
 -0.250000 -0.250000  0.400000    0.01250000  48 t-inv F
  0.000000  0.000000 -0.400000    0.01250000  49 t-inv F
  0.250000  0.000000 -0.400000    0.01250000  50 t-inv F
  0.500000  0.000000 -0.400000    0.01250000  51 t-inv F
 -0.250000  0.000000 -0.400000    0.01250000  52 t-inv F
  0.000000  0.250000 -0.400000    0.01250000  53 t-inv F
  0.250000  0.250000 -0.400000    0.01250000  54 t-inv F
  0.500000  0.250000 -0.400000    0.01250000  55 t-inv F
 -0.250000  0.250000 -0.400000    0.01250000  56 t-inv F
  0.000000  0.500000 -0.400000    0.01250000  57 t-inv F
  0.250000  0.500000 -0.400000    0.01250000  58 t-inv F
  0.500000  0.500000 -0.400000    0.01250000  59 t-inv F
 -0.250000  0.500000 -0.400000    0.01250000  60 t-inv F
  0.000000 -0.250000 -0.400000    0.01250000  61 t-inv F
  0.250000 -0.250000 -0.400000    0.01250000  62 t-inv F
  0.500000 -0.250000 -0.400000    0.01250000  63 t-inv F
 -0.250000 -0.250000 -0.400000    0.01250000  64 t-inv F
  0.000000  0.000000 -0.200000    0.01250000  65 t-inv F
  0.250000  0.000000 -0.200000    0.01250000  66 t-inv F
  0.500000  0.000000 -0.200000    0.01250000  67 t-inv F
 -0.250000  0.000000 -0.200000    0.01250000  68 t-inv F
  0.000000  0.250000 -0.200000    0.01250000  69 t-inv F
  0.250000  0.250000 -0.200000    0.01250000  70 t-inv F
  0.500000  0.250000 -0.200000    0.01250000  71 t-inv F
 -0.250000  0.250000 -0.200000    0.01250000  72 t-inv F
  0.000000  0.500000 -0.200000    0.01250000  73 t-inv F
  0.250000  0.500000 -0.200000    0.01250000  74 t-inv F
  0.500000  0.500000 -0.200000    0.01250000  75 t-inv F
 -0.250000  0.500000 -0.200000    0.01250000  76 t-inv F
  0.000000 -0.250000 -0.200000    0.01250000  77 t-inv F
  0.250000 -0.250000 -0.200000    0.01250000  78 t-inv F
  0.500000 -0.250000 -0.200000    0.01250000  79 t-inv F
 -0.250000 -0.250000 -0.200000    0.01250000  80 t-inv F


--------------------------------------------------------------------------------------------------------




 Dimension of arrays:
   k-points           NKPTS =     80   k-points in BZ     NKDIM =     80   number of bands    NBANDS=    300
   number of dos      NEDOS =    301   number of ions     NIONS =    108
   non local maximal  LDIM  =      6   non local SUM 2l+1 LMDIM =     18
   total plane-waves  NPLWV = ******
   max r-space proj   IRMAX =      1   max aug-charges    IRDMAX= 247097
   dimension x,y,z NGX =   120 NGY =  120 NGZ =   84
   dimension x,y,z NGXF=   240 NGYF=  240 NGZF=  168
   support grid    NGXF=   480 NGYF=  480 NGZF=  336
   ions per type =               6  36  18  42   6
   NGX,Y,Z   is equivalent  to a cutoff of  15.89, 15.89, 16.03 a.u.
   NGXF,Y,Z  is equivalent  to a cutoff of  31.78, 31.78, 32.06 a.u.

 SYSTEM =  unknown system                          
 POSCAR =  critic2 | Mn-110.cif                    

 Startparameter for this run:
   NWRITE =      2    write-flag & timer
   PREC   = accura    normal or accurate (medium, high low for compatibility)
   ISTART =      1    job   : 0-new  1-cont  2-samecut
   ICHARG =     11    charge: 1-file 2-atom 10-const
   ISPIN  =      2    spin polarized calculation?
   LNONCOLLINEAR =      F non collinear calculations
   LSORBIT =      F    spin-orbit coupling
   INIWAV =      1    electr: 0-lowe 1-rand  2-diag
   LASPH  =      T    aspherical Exc in radial PAW
 Electronic Relaxation 1
   ENCUT  =  850.0 eV  62.47 Ry    7.90 a.u.  29.84 29.84 20.71*2*pi/ulx,y,z
   ENINI  =  850.0     initial cutoff
   ENAUG  = 1500.0 eV  augmentation charge cutoff
   NELM   =     50;   NELMIN=  6; NELMDL= -8     # of ELM steps 
   EDIFF  = 0.1E-09   stopping-criterion for ELM
   LREAL  =      F    real-space projection
   NLSPLINE    = F    spline interpolate recip. space projectors
   LCOMPAT=      F    compatible to vasp.4.4
   GGA_COMPAT  = F    GGA compatible to vasp.4.4-vasp.4.6
   LMAXPAW     = -100 max onsite density
   LMAXMIX     =    4 max onsite mixed and CHGCAR
   VOSKOWN=      0    Vosko Wilk Nusair interpolation
   ROPT   =    0.00000   0.00000   0.00000   0.00000
   ROPT   =    0.00000
 Ionic relaxation
   EDIFFG = -.5E-02   stopping-criterion for IOM
   NSW    =      0    number of steps for IOM
   NBLOCK =      1;   KBLOCK =      1    inner block; outer block 
   IBRION =     -1    ionic relax: 0-MD 1-quasi-New 2-CG
   NFREE  =      0    steps in history (QN), initial steepest desc. (CG)
   ISIF   =      3    stress and relaxation
   IWAVPR =     10    prediction:  0-non 1-charg 2-wave 3-comb
   ISYM   =     -1    0-nonsym 1-usesym 2-fastsym
   LCORR  =      T    Harris-Foulkes like correction to forces

   POTIM  = 0.1000    time-step for ionic-motion
   TEIN   =    0.0    initial temperature
   TEBEG  =    0.0;   TEEND  =   0.0 temperature during run
   SMASS  =  -3.00    Nose mass-parameter (am)
   estimated Nose-frequenzy (Omega)   =  0.10E-29 period in steps = 0.63E+47 mass=  -0.360E-26a.u.
   SCALEE = 1.0000    scale energy and forces
   NPACO  =    256;   APACO  = 10.0  distance and # of slots for P.C.
   PSTRESS=    0.0 pullay stress

  Mass of Ions in am
   POMASS =  54.94 16.00 12.01  1.00 14.00
  Ionic Valenz
   ZVAL   =  13.00  6.00  4.00  1.00  5.00
  Atomic Wigner-Seitz radii
   RWIGS  =  -1.00 -1.00 -1.00 -1.00 -1.00
  virtual crystal weights 
   VCA    =   1.00  1.00  1.00  1.00  1.00
   NELECT =     438.0000    total number of electrons
   NUPDOWN=      -1.0000    fix difference up-down

 DOS related values:
   EMIN   =  10.00;   EMAX   =-10.00  energy-range for DOS
   EFERMI =   0.00
   ISMEAR =     0;   SIGMA  =   0.05  broadening in eV -4-tet -1-fermi 0-gaus

 Electronic relaxation 2 (details)
   IALGO  =     38    algorithm
   LDIAG  =      T    sub-space diagonalisation (order eigenvalues)
   LSUBROT=      F    optimize rotation matrix (better conditioning)
   TURBO    =      0    0=normal 1=particle mesh
   IRESTART =      0    0=no restart 2=restart with 2 vectors
   NREBOOT  =      0    no. of reboots
   NMIN     =      0    reboot dimension
   EREF     =   0.00    reference energy to select bands
   IMIX   =      4    mixing-type and parameters
     AMIX     =   0.10;   BMIX     =  1.00
     AMIX_MAG =   0.40;   BMIX_MAG =  1.00
     AMIN     =   0.10
     WC   =   100.;   INIMIX=   1;  MIXPRE=   1;  MAXMIX= -45

 Intra band minimization:
   WEIMIN = 0.0000     energy-eigenvalue tresh-hold
   EBREAK =  0.83E-13  absolut break condition
   DEPER  =   0.30     relativ break condition  

   TIME   =   0.40     timestep for ELM

  volume/ion in A,a.u.               =      11.01        74.30
  Fermi-wavevector in a.u.,A,eV,Ry     =   1.173529  2.217647 18.737524  1.377169
  Thomas-Fermi vector in A             =   2.309940
 
 Write flags
   LWAVE        =      F    write WAVECAR
   LDOWNSAMPLE  =      F    k-point downsampling of WAVECAR
   LCHARG       =      F    write CHGCAR
   LVTOT        =      F    write LOCPOT, total local potential
   LVHAR        =      F    write LOCPOT, Hartree potential only
   LELF         =      F    write electronic localiz. function (ELF)
   LORBIT       =     11    0 simple, 1 ext, 2 COOP (PROOUT), +10 PAW based schemes


 Dipole corrections
   LMONO  =      F    monopole corrections only (constant potential shift)
   LDIPOL =      F    correct potential (dipole corrections)
   IDIPOL =      0    1-x, 2-y, 3-z, 4-all directions 
   EPSILON=  1.0000000 bulk dielectric constant

 Exchange correlation treatment:
   GGA     =    --    GGA type
   LEXCH   =     8    internal setting for exchange type
   LIBXC   =     F    Libxc                    
   VOSKOWN =     0    Vosko Wilk Nusair interpolation
   LHFCALC =     F    Hartree Fock is set to
   LHFONE  =     F    Hartree Fock one center treatment
   AEXX    =    0.0000 exact exchange contribution

 Linear response parameters
   LEPSILON=     F    determine dielectric tensor
   LRPA    =     F    only Hartree local field effects (RPA)
   LNABLA  =     F    use nabla operator in PAW spheres
   LVEL    =     F    velocity operator in full k-point grid
   CSHIFT  =0.1000    complex shift for real part using Kramers Kronig
   OMEGAMAX=  -1.0    maximum frequency
   DEG_THRESHOLD= 0.2000000E-02 threshold for treating states as degnerate
   RTIME   =   -0.100 relaxation time in fs
  (WPLASMAI=    0.000 imaginary part of plasma frequency in eV, 0.658/RTIME)
   DFIELD  = 0.0000000 0.0000000 0.0000000 field for delta impulse in time
 
  Optional k-point grid parameters
   LKPOINTS_OPT  =     F    use optional k-point grid
   KPOINTS_OPT_MODE=     1    mode for optional k-point grid
 
 Orbital magnetization related:
   ORBITALMAG=     F  switch on orbital magnetization
   LCHIMAG   =     F  perturbation theory with respect to B field
   DQ        =  0.001000  dq finite difference perturbation B field
   LLRAUG    =     F  two centre corrections for induced B field

 PEAD related settings:
   LPEAD      =     T    switch on PEAD
   IPEAD      =     4    finite difference order for dpsi/dk
   LCALCPOL   =     T    calculate macroscopic polarization
   LCALCEPS   =     F    calculate dielectric tensor
   EFIELD_PEAD=    0.0000    0.0000    0.0000
   SKIP_EDOTP =     F
   LRPA       =     F
   SKIP_SCF   =     F


--------------------------------------------------------------------------------------------------------


 Static calculation
 charge density and potential remain constant during run
 spin polarized calculation
 Variant of blocked Davidson
 Davidson routine will perform the subspace rotation
 perform sub-space diagonalisation
    after iterative eigenvector-optimisation
 no mixing
 using additional bands            81
 reciprocal scheme for non local part
 use partial core corrections
 calculate Harris-corrections to forces 
   (improved forces if not selfconsistent)
 use gradient corrections 
 WARNING: stress and forces are not correct
  (second derivative of E(xc) not defined)
 use of overlap-Matrix (Vanderbilt PP)
 Gauss-broadening in eV      SIGMA  =   0.05


--------------------------------------------------------------------------------------------------------


  energy-cutoff  :      850.00
  volume of cell :     1189.10
      direct lattice vectors                 reciprocal lattice vectors
    12.553725422 -0.000003521  0.000000000     0.079657642  0.045990375 -0.000000000
    -6.276865505 10.871846549  0.000000000     0.000000026  0.091980710 -0.000000000
     0.000000000  0.000000000  8.712480297    -0.000000000 -0.000000000  0.114777878

  length of vectors
    12.553725422 12.553728050  8.712480297     0.091980729  0.091980710  0.114777878


 
 old parameters found on file WAVECAR:
  energy-cutoff  :      850.00
  volume of cell :     1189.10
      direct lattice vectors                 reciprocal lattice vectors
    12.553725422 -0.000003521  0.000000000     0.079657642  0.045990375 -0.000000000
    -6.276865505 10.871846549  0.000000000     0.000000026  0.091980710 -0.000000000
     0.000000000  0.000000000  8.712480297    -0.000000000 -0.000000000  0.114777878

  length of vectors

 
 k-points in units of 2pi/SCALE and weight: K-Spacing Value to Generate K-Mesh: 0.04
   0.00000000  0.00000000  0.00000000       0.013
   0.01991441  0.01149759  0.00000000       0.013
   0.03982882  0.02299519  0.00000000       0.013
  -0.01991441 -0.01149759  0.00000000       0.013
   0.00000001  0.02299518  0.00000000       0.013
   0.01991442  0.03449277  0.00000000       0.013
   0.03982883  0.04599037  0.00000000       0.013
  -0.01991440  0.01149758  0.00000000       0.013
   0.00000001  0.04599035  0.00000000       0.013
   0.01991442  0.05748795  0.00000000       0.013
   0.03982883  0.06898554  0.00000000       0.013
  -0.01991440  0.03449276  0.00000000       0.013
  -0.00000001 -0.02299518  0.00000000       0.013
   0.01991440 -0.01149758  0.00000000       0.013
   0.03982881  0.00000001  0.00000000       0.013
  -0.01991442 -0.03449277  0.00000000       0.013
   0.00000000  0.00000000  0.02295558       0.013
   0.01991441  0.01149759  0.02295558       0.013
   0.03982882  0.02299519  0.02295558       0.013
  -0.01991441 -0.01149759  0.02295558       0.013
   0.00000001  0.02299518  0.02295558       0.013
   0.01991442  0.03449277  0.02295558       0.013
   0.03982883  0.04599037  0.02295558       0.013
  -0.01991440  0.01149758  0.02295558       0.013
   0.00000001  0.04599035  0.02295558       0.013
   0.01991442  0.05748795  0.02295558       0.013
   0.03982883  0.06898554  0.02295558       0.013
  -0.01991440  0.03449276  0.02295558       0.013
  -0.00000001 -0.02299518  0.02295558       0.013
   0.01991440 -0.01149758  0.02295558       0.013
   0.03982881  0.00000001  0.02295558       0.013
  -0.01991442 -0.03449277  0.02295558       0.013
   0.00000000  0.00000000  0.04591115       0.013
   0.01991441  0.01149759  0.04591115       0.013
   0.03982882  0.02299519  0.04591115       0.013
  -0.01991441 -0.01149759  0.04591115       0.013
   0.00000001  0.02299518  0.04591115       0.013
   0.01991442  0.03449277  0.04591115       0.013
   0.03982883  0.04599037  0.04591115       0.013
  -0.01991440  0.01149758  0.04591115       0.013
   0.00000001  0.04599035  0.04591115       0.013
   0.01991442  0.05748795  0.04591115       0.013
   0.03982883  0.06898554  0.04591115       0.013
  -0.01991440  0.03449276  0.04591115       0.013
  -0.00000001 -0.02299518  0.04591115       0.013
   0.01991440 -0.01149758  0.04591115       0.013
   0.03982881  0.00000001  0.04591115       0.013
  -0.01991442 -0.03449277  0.04591115       0.013
   0.00000000  0.00000000 -0.04591115       0.013
   0.01991441  0.01149759 -0.04591115       0.013
   0.03982882  0.02299519 -0.04591115       0.013
  -0.01991441 -0.01149759 -0.04591115       0.013
   0.00000001  0.02299518 -0.04591115       0.013
   0.01991442  0.03449277 -0.04591115       0.013
   0.03982883  0.04599037 -0.04591115       0.013
  -0.01991440  0.01149758 -0.04591115       0.013
   0.00000001  0.04599035 -0.04591115       0.013
   0.01991442  0.05748795 -0.04591115       0.013
   0.03982883  0.06898554 -0.04591115       0.013
  -0.01991440  0.03449276 -0.04591115       0.013
  -0.00000001 -0.02299518 -0.04591115       0.013
   0.01991440 -0.01149758 -0.04591115       0.013
   0.03982881  0.00000001 -0.04591115       0.013
  -0.01991442 -0.03449277 -0.04591115       0.013
   0.00000000  0.00000000 -0.02295558       0.013
   0.01991441  0.01149759 -0.02295558       0.013
   0.03982882  0.02299519 -0.02295558       0.013
  -0.01991441 -0.01149759 -0.02295558       0.013
   0.00000001  0.02299518 -0.02295558       0.013
   0.01991442  0.03449277 -0.02295558       0.013
   0.03982883  0.04599037 -0.02295558       0.013
  -0.01991440  0.01149758 -0.02295558       0.013
   0.00000001  0.04599035 -0.02295558       0.013
   0.01991442  0.05748795 -0.02295558       0.013
   0.03982883  0.06898554 -0.02295558       0.013
  -0.01991440  0.03449276 -0.02295558       0.013
  -0.00000001 -0.02299518 -0.02295558       0.013
   0.01991440 -0.01149758 -0.02295558       0.013
   0.03982881  0.00000001 -0.02295558       0.013
  -0.01991442 -0.03449277 -0.02295558       0.013
 
 k-points in reciprocal lattice and weights: K-Spacing Value to Generate K-Mesh: 0.04
   0.00000000  0.00000000  0.00000000       0.013
   0.25000000  0.00000000  0.00000000       0.013
   0.50000000  0.00000000  0.00000000       0.013
  -0.25000000  0.00000000  0.00000000       0.013
   0.00000000  0.25000000  0.00000000       0.013
   0.25000000  0.25000000  0.00000000       0.013
   0.50000000  0.25000000  0.00000000       0.013
  -0.25000000  0.25000000  0.00000000       0.013
   0.00000000  0.50000000  0.00000000       0.013
   0.25000000  0.50000000  0.00000000       0.013
   0.50000000  0.50000000  0.00000000       0.013
  -0.25000000  0.50000000  0.00000000       0.013
   0.00000000 -0.25000000  0.00000000       0.013
   0.25000000 -0.25000000  0.00000000       0.013
   0.50000000 -0.25000000  0.00000000       0.013
  -0.25000000 -0.25000000  0.00000000       0.013
   0.00000000  0.00000000  0.20000000       0.013
   0.25000000  0.00000000  0.20000000       0.013
   0.50000000  0.00000000  0.20000000       0.013
  -0.25000000  0.00000000  0.20000000       0.013
   0.00000000  0.25000000  0.20000000       0.013
   0.25000000  0.25000000  0.20000000       0.013
   0.50000000  0.25000000  0.20000000       0.013
  -0.25000000  0.25000000  0.20000000       0.013
   0.00000000  0.50000000  0.20000000       0.013
   0.25000000  0.50000000  0.20000000       0.013
   0.50000000  0.50000000  0.20000000       0.013
  -0.25000000  0.50000000  0.20000000       0.013
   0.00000000 -0.25000000  0.20000000       0.013
   0.25000000 -0.25000000  0.20000000       0.013
   0.50000000 -0.25000000  0.20000000       0.013
  -0.25000000 -0.25000000  0.20000000       0.013
   0.00000000  0.00000000  0.40000000       0.013
   0.25000000  0.00000000  0.40000000       0.013
   0.50000000  0.00000000  0.40000000       0.013
  -0.25000000  0.00000000  0.40000000       0.013
   0.00000000  0.25000000  0.40000000       0.013
   0.25000000  0.25000000  0.40000000       0.013
   0.50000000  0.25000000  0.40000000       0.013
  -0.25000000  0.25000000  0.40000000       0.013
   0.00000000  0.50000000  0.40000000       0.013
   0.25000000  0.50000000  0.40000000       0.013
   0.50000000  0.50000000  0.40000000       0.013
  -0.25000000  0.50000000  0.40000000       0.013
   0.00000000 -0.25000000  0.40000000       0.013
   0.25000000 -0.25000000  0.40000000       0.013
   0.50000000 -0.25000000  0.40000000       0.013
  -0.25000000 -0.25000000  0.40000000       0.013
   0.00000000  0.00000000 -0.40000000       0.013
   0.25000000  0.00000000 -0.40000000       0.013
   0.50000000  0.00000000 -0.40000000       0.013
  -0.25000000  0.00000000 -0.40000000       0.013
   0.00000000  0.25000000 -0.40000000       0.013
   0.25000000  0.25000000 -0.40000000       0.013
   0.50000000  0.25000000 -0.40000000       0.013
  -0.25000000  0.25000000 -0.40000000       0.013
   0.00000000  0.50000000 -0.40000000       0.013
   0.25000000  0.50000000 -0.40000000       0.013
   0.50000000  0.50000000 -0.40000000       0.013
  -0.25000000  0.50000000 -0.40000000       0.013
   0.00000000 -0.25000000 -0.40000000       0.013
   0.25000000 -0.25000000 -0.40000000       0.013
   0.50000000 -0.25000000 -0.40000000       0.013
  -0.25000000 -0.25000000 -0.40000000       0.013
   0.00000000  0.00000000 -0.20000000       0.013
   0.25000000  0.00000000 -0.20000000       0.013
   0.50000000  0.00000000 -0.20000000       0.013
  -0.25000000  0.00000000 -0.20000000       0.013
   0.00000000  0.25000000 -0.20000000       0.013
   0.25000000  0.25000000 -0.20000000       0.013
   0.50000000  0.25000000 -0.20000000       0.013
  -0.25000000  0.25000000 -0.20000000       0.013
   0.00000000  0.50000000 -0.20000000       0.013
   0.25000000  0.50000000 -0.20000000       0.013
   0.50000000  0.50000000 -0.20000000       0.013
  -0.25000000  0.50000000 -0.20000000       0.013
   0.00000000 -0.25000000 -0.20000000       0.013
   0.25000000 -0.25000000 -0.20000000       0.013
   0.50000000 -0.25000000 -0.20000000       0.013
  -0.25000000 -0.25000000 -0.20000000       0.013
 
 position of ions in fractional coordinates (direct lattice) 
   0.33667172  0.32874215  0.58816674
   0.67125718  0.00792905  0.58816651
   0.99207120  0.66332872  0.58816604
   0.66332828  0.67125785  0.08816674
   0.32874282  0.99207095  0.08816651
   0.00792880  0.33667128  0.08816604
   0.42469004  0.25564090  0.44159591
   0.74435883  0.16904792  0.44159716
   0.83095120  0.57531104  0.44159592
   0.57530996  0.74435910  0.94159591
   0.25564117  0.83095208  0.94159716
   0.16904880  0.42468896  0.94159592
   0.43364136  0.15760144  0.23043081
   0.84239729  0.27603873  0.23043073
   0.72396098  0.56635891  0.23043146
   0.56635864  0.84239856  0.73043081
   0.15760271  0.72396127  0.73043073
   0.27603902  0.43364109  0.73043146
   0.39923766  0.49139212  0.43665682
   0.50860907  0.90784597  0.43665647
   0.09215311  0.60076269  0.43665568
   0.60076234  0.50860788  0.93665682
   0.49139093  0.09215403  0.93665647
   0.90784689  0.39923731  0.93665568
   0.49764820  0.60326131  0.22846921
   0.39673840  0.89438700  0.22846796
   0.10561240  0.50235127  0.22846745
   0.50235180  0.39673869  0.72846921
   0.60326160  0.10561300  0.72846796
   0.89438760  0.49764873  0.72846745
   0.16649743  0.22867181  0.45450067
   0.77132831  0.93782601  0.45450087
   0.06217534  0.83350346  0.45449936
   0.83350257  0.77132819  0.95450067
   0.22867169  0.06217399  0.95450087
   0.93782466  0.16649654  0.95449936
   0.07221875  0.24179177  0.24205238
   0.75820812  0.83042706  0.24205335
   0.16957324  0.92778032  0.24205426
   0.92778125  0.75820823  0.74205238
   0.24179188  0.16957294  0.74205335
   0.83042676  0.07221968  0.74205426
   0.37676726  0.18956225  0.32229608
   0.81043777  0.18720330  0.32229551
   0.81279553  0.62323302  0.32229663
   0.62323274  0.81043775  0.82229608
   0.18956223  0.81279670  0.82229551
   0.18720447  0.37676698  0.82229663
   0.46472578  0.51178336  0.31641823
   0.48821646  0.95294210  0.31641729
   0.04705862  0.53527474  0.31641867
   0.53527422  0.48821664  0.81641823
   0.51178354  0.04705790  0.81641729
   0.95294138  0.46472526  0.81641867
   0.13237107  0.28595873  0.36616154
   0.71404178  0.84641248  0.36616107
   0.15358772  0.86763011  0.36615987
   0.86762893  0.71404127  0.86616154
   0.28595822  0.15358752  0.86616107
   0.84641228  0.13236989  0.86615987
   0.27894559  0.15930057  0.30000533
   0.84069893  0.11964507  0.30000486
   0.88035520  0.72105443  0.30000504
   0.72105441  0.84069943  0.80000533
   0.15930107  0.88035493  0.80000486
   0.11964480  0.27894557  0.80000504
   0.49545633  0.44534462  0.28920230
   0.55465616  0.05011284  0.28920087
   0.94988596  0.50454212  0.28920162
   0.50454367  0.55465538  0.78920230
   0.44534384  0.94988716  0.78920087
   0.05011404  0.49545788  0.78920162
   0.15617687  0.38099554  0.39618706
   0.61900432  0.77518101  0.39618766
   0.22481912  0.84382329  0.39618768
   0.84382313  0.61900446  0.89618706
   0.38099568  0.22481899  0.89618766
   0.77518088  0.15617671  0.89618768
   0.57657616  0.30151166  0.49625260
   0.69848804  0.27506450  0.49624852
   0.72493709  0.42342382  0.49625199
   0.42342384  0.69848834  0.99625260
   0.30151196  0.72493550  0.99624852
   0.27506291  0.57657618  0.99625199
   0.66666662  0.33333372  0.65196303
   0.33333338  0.66666628  0.15196303
   0.35862524  0.60308242  0.49204816
   0.39691670  0.75554347  0.49204503
   0.24445670  0.64137497  0.49204393
   0.64137476  0.39691758  0.99204816
   0.60308330  0.24445653  0.99204503
   0.75554330  0.35862503  0.99204393
   0.33333306  0.66666698  0.64795189
   0.66666694  0.33333302  0.14795189
   0.02967789  0.08979876  0.18557676
   0.91020128  0.93987912  0.18557716
   0.06012145  0.97032231  0.18557743
   0.97032211  0.91020124  0.68557676
   0.08979872  0.06012088  0.68557716
   0.93987855  0.02967769  0.68557743
   0.00000006  0.99999973  0.02994912
   0.99999994  0.00000027  0.52994912
   0.66666707  0.33333311  0.53461586
   0.33333293  0.66666689  0.03461586
   0.33333328  0.66666707  0.53050856
   0.66666672  0.33333293  0.03050856
   0.99999973  0.00000024  0.14732690
   0.00000027  0.99999976  0.64732690
 
 position of ions in cartesian coordinates  (Angst):
   2.16301401  3.57403304  5.12439113
   8.37700871  0.08620106  5.12438915
   8.29056422  7.21160461  5.12438506
   4.11384591  7.29780999  0.76815098
  -2.10014879 10.78564197  0.76814900
  -2.01370431  3.66023842  0.76814491
   3.72681866  2.77928714  3.84739567
   8.28338529  1.83786043  3.84740657
   6.82038322  6.25469042  3.84739571
   2.55004126  8.09255588  8.20363582
  -2.00652537  9.03398260  8.20364672
  -0.54352331  4.61715261  8.20363586
   4.45457148  1.71341719  2.00762386
   8.84256626  3.00104778  2.00762321
   5.53344863  6.15736459  2.00762959
   1.82228844  9.15842584  6.36386401
  -2.56570635  7.87079524  6.36386336
   0.74341128  4.71447844  6.36386973
   1.92751766  5.34233833  3.80436395
   0.68651152  9.86996033  3.80436085
  -2.61404172  6.53139940  3.80435403
   4.34934226  5.52950470  8.16060410
   5.59034839  1.00188270  8.16060100
   8.89090164  4.34044363  8.16059418
   2.46074868  6.55856266  1.99053352
  -0.63340206  9.72363687  1.99052262
  -1.82736224  5.46148550  1.99051816
   3.81611124  4.31328037  6.34677366
   6.91026198  1.14820616  6.34676277
   8.10422216  5.41035753  6.34675831
   0.65482089  2.48608423  3.95982810
   3.79643607 10.19589777  3.95982991
  -4.45125700  9.06172150  3.95981668
   5.62203903  8.38575880  8.31606825
   2.48042384  0.67594526  8.31607006
  10.72811691  1.81012153  8.31605682
  -0.61108010  2.62872275  2.10887656
   4.30585754  9.02827289  2.10888500
  -3.69477640 10.08668469  2.10889296
   6.88794002  8.24312028  6.46511671
   1.97100237  1.84357014  6.46512515
   9.97163632  0.78515834  6.46513311
   3.53997600  2.06089033  2.80799823
   8.99896330  2.03524275  2.80799331
   6.29166202  6.77569092  2.80800304
[...]
     -2.00653      9.03398      8.20365         0.003608      0.000698      0.002559
     -0.54352      4.61715      8.20364        -0.001967      0.002887      0.002580
      4.45457      1.71342      2.00762         0.001674     -0.000732     -0.000207
      8.84257      3.00105      2.00762        -0.000947      0.000454     -0.000420
      5.53345      6.15736      2.00763        -0.000271     -0.001009      0.000017
      1.82229      9.15843      6.36386        -0.001669      0.000735     -0.000307
     -2.56571      7.87080      6.36386         0.000964     -0.000471     -0.000426
      0.74341      4.71448      6.36387         0.000290      0.000995      0.000087
      1.92752      5.34234      3.80436        -0.000433     -0.001207      0.001702
      0.68651      9.86996      3.80436         0.001670     -0.000100      0.001154
     -2.61404      6.53140      3.80435        -0.000812      0.002378      0.001810
      4.34934      5.52950      8.16060         0.000464      0.001187      0.001625
      5.59035      1.00188      8.16060        -0.001613      0.000085      0.001225
      8.89090      4.34044      8.16059         0.000816     -0.002392      0.001779
      2.46075      6.55856      1.99053         0.000686      0.000526     -0.001576
     -0.63340      9.72364      1.99052        -0.001520      0.000210     -0.001756
     -1.82736      5.46149      1.99052         0.000246     -0.000588     -0.001618
      3.81611      4.31328      6.34677        -0.000684     -0.000527     -0.001563
      6.91026      1.14821      6.34676         0.001542     -0.000213     -0.001711
      8.10422      5.41036      6.34676        -0.000229      0.000584     -0.001702
      0.65482      2.48608      3.95983        -0.000895     -0.000173      0.000331
      3.79644     10.19590      3.95983         0.000156     -0.000052      0.000201
     -4.45126      9.06172      3.95982         0.000362      0.000491     -0.000603
      5.62204      8.38576      8.31607         0.000960      0.000134      0.000353
      2.48042      0.67595      8.31607        -0.000157      0.000023      0.000194
     10.72812      1.81012      8.31606        -0.000314     -0.000505     -0.000630
     -0.61108      2.62872      2.10888        -0.000160     -0.001048      0.000323
      4.30586      9.02827      2.10889         0.001063      0.000458      0.000898
     -3.69478     10.08668      2.10889        -0.000696      0.000343      0.000771
      6.88794      8.24312      6.46512         0.000171      0.001018      0.000379
      1.97100      1.84357      6.46513        -0.001049     -0.000441      0.000781
      9.97164      0.78516      6.46513         0.000712     -0.000349      0.000786
      3.53998      2.06089      2.80800        -0.000301      0.001767      0.000223
      8.99896      2.03524      2.80799        -0.002132      0.000195     -0.000123
      6.29166      6.77569      2.80800         0.001032     -0.000912     -0.000587
      2.73688      8.81095      7.16424         0.000292     -0.001787      0.000273
     -2.72210      8.83660      7.16423         0.002109     -0.000151     -0.000083
     -0.01480      4.09615      7.16424        -0.000984      0.000935     -0.000662
      2.62164      5.56403      2.75679        -0.001708      0.001824      0.000983
      0.14745     10.36024      2.75678        -0.000206     -0.001686      0.001399
     -2.76909      5.81942      2.75679         0.001387     -0.000549     -0.000199
      3.65522      5.30781      7.11303         0.001704     -0.001783      0.001038
      6.12941      0.51160      7.11302         0.000244      0.001706      0.001332
      9.04595      5.05242      7.11303        -0.001396      0.000536     -0.000153
     -0.13317      3.10890      3.19018        -0.000681      0.000398     -0.001242
      3.65107      9.20206      3.19017        -0.000227     -0.001127     -0.001144
     -3.51790      9.43274      3.19016         0.001407     -0.000112     -0.000324
      6.41003      7.76294      7.54642         0.000675     -0.000365     -0.001282
      2.62579      1.66978      7.54641         0.000226      0.001121     -0.001100
      9.79476      1.43910      7.54640        -0.001457      0.000136     -0.000301
      2.50190      1.73189      2.61379        -0.001583     -0.000205     -0.002140
      9.80291      1.30076      2.61379         0.001162     -0.001620     -0.002129
      6.52578      7.83919      2.61379         0.000645      0.001238     -0.002040
      3.77496      9.13995      6.97003         0.001555      0.000196     -0.002147
     -3.52605      9.57108      6.97003        -0.001187      0.001643     -0.002146
     -0.24892      3.03265      6.97003        -0.000655     -0.001249     -0.002000
      3.42445      4.84172      2.51967         0.000151      0.000120     -0.002561
      6.64845      0.54482      2.51966        -0.000181     -0.000009     -0.002655
      8.75766      5.48530      2.51966         0.000418      0.000063     -0.002415
      2.85241      6.03013      6.87591        -0.000169     -0.000106     -0.002576
     -0.37159     10.32703      6.87590         0.000167     -0.000020     -0.002630
     -2.48080      5.38654      6.87590        -0.000465     -0.000079     -0.002418
     -0.43086      4.14212      3.45177        -0.000656     -0.002479      0.002278
      2.90510      8.42765      3.45178         0.002596      0.000690      0.002207
     -2.47425      9.17392      3.45178        -0.002577      0.002046      0.001913
      6.70772      6.72972      7.80801         0.000631      0.002522      0.002288
      3.37176      2.44420      7.80802        -0.002574     -0.000688      0.002202
      8.75111      1.69793      7.80802         0.002552     -0.002043      0.001905
      5.34563      3.27799      4.32359        -0.000180      0.000269      0.000156
      7.04208      2.99046      4.32356        -0.000110     -0.000218      0.000496
      6.44289      4.60340      4.32359         0.000143     -0.000060      0.000273
      0.93123      7.59386      8.67983         0.000163     -0.000270      0.000163
     -0.76522      7.88139      8.67980         0.000060      0.000243      0.000478
     -0.16603      6.26845      8.67983        -0.000153      0.000096      0.000281
      6.27686      3.62395      5.68022         0.000148     -0.000035      0.000424
      0.00000      7.24789      1.32397        -0.000165      0.000047      0.000417
      0.71662      6.55662      4.28696         0.001301      0.000175     -0.000850
      0.24034      8.21415      4.28693        -0.000731      0.000757     -0.000509
     -0.95698      6.97293      4.28692        -0.000085     -0.001181     -0.000376
      5.56024      4.31522      8.64320        -0.001345     -0.000152     -0.000862
      6.03652      2.65769      8.64317         0.000721     -0.000730     -0.000503
      7.23384      3.89891      8.64316         0.000063      0.001180     -0.000372
     -0.00001      7.24790      5.64527        -0.000131      0.000067     -0.003492
      6.27687      3.62394      1.28903         0.000110     -0.000055     -0.003497
     -0.19109      0.97628      1.61683         0.000099      0.000437      0.000460
      5.52692     10.21822      1.61684        -0.000324      0.000011      0.000345
     -5.33583     10.54920      1.61684        -0.000408     -0.000026      0.000156
      6.46795      9.89556      5.97307        -0.000107     -0.000451      0.000468
      0.74994      0.65362      5.97308         0.000309     -0.000007      0.000347
     11.61269      0.32265      5.97308         0.000401      0.000031      0.000152
     -6.27686     10.87184      0.26093        -0.000012     -0.000035      0.000307
     12.55372     -0.00000      4.61717         0.000007      0.000035      0.000292
      6.27687      3.62394      4.65783         0.000247     -0.000061     -0.002049
     -0.00001      7.24790      0.30159        -0.000159     -0.000003     -0.002031
     -0.00000      7.24790      4.62205        -0.000617      0.000269      0.004215
      6.27686      3.62394      0.26581         0.000701     -0.000321      0.004231
     12.55372     -0.00000      1.28358         0.000538     -0.000329      0.001205
     -6.27686     10.87184      5.63982        -0.000510      0.000329      0.001200
 -----------------------------------------------------------------------------------
    total drift:                                0.000959     -0.000291     -0.001081


--------------------------------------------------------------------------------------------------------



  FREE ENERGIE OF THE ION-ELECTRON SYSTEM (eV)
  ---------------------------------------------------
  free  energy   TOTEN  =      -692.00497631 eV

  energy  without entropy=     -692.00497631  energy(sigma->0) =     -692.00497631
 


--------------------------------------------------------------------------------------------------------


    POTLOK:  cpu time      2.0416: real time      2.0402


--------------------------------------------------------------------------------------------------------


     LOOP+:  cpu time  25696.8752: real time  25636.0110
    4ORBIT:  cpu time      0.0000: real time      0.0000



 total charge

# of ion       s       p       d       tot
------------------------------------------
    1        0.179   6.157   4.934  11.270
    2        0.179   6.157   4.934  11.270
    3        0.179   6.157   4.934  11.270
    4        0.179   6.157   4.934  11.270
    5        0.179   6.157   4.934  11.270
    6        0.179   6.157   4.934  11.270
    7        1.567   3.577   0.000   5.144
    8        1.567   3.577   0.000   5.144
    9        1.567   3.577   0.000   5.144
   10        1.567   3.577   0.000   5.144
   11        1.567   3.577   0.000   5.144
   12        1.567   3.577   0.000   5.144
   13        1.571   3.567   0.000   5.138
   14        1.571   3.567   0.000   5.137
   15        1.571   3.567   0.000   5.138
   16        1.571   3.567   0.000   5.138
   17        1.571   3.567   0.000   5.137
   18        1.571   3.567   0.000   5.138
   19        1.568   3.571   0.000   5.138
   20        1.568   3.570   0.000   5.138
   21        1.568   3.571   0.000   5.138
   22        1.568   3.571   0.000   5.138
   23        1.568   3.570   0.000   5.138
   24        1.568   3.571   0.000   5.138
   25        1.570   3.569   0.000   5.139
   26        1.570   3.569   0.000   5.139
   27        1.570   3.569   0.000   5.139
   28        1.570   3.569   0.000   5.139
   29        1.570   3.569   0.000   5.139
   30        1.570   3.569   0.000   5.139
   31        1.570   3.569   0.000   5.139
   32        1.570   3.569   0.000   5.139
   33        1.570   3.569   0.000   5.139
   34        1.570   3.569   0.000   5.139
   35        1.570   3.569   0.000   5.139
   36        1.570   3.569   0.000   5.139
   37        1.568   3.574   0.000   5.141
   38        1.568   3.574   0.000   5.141
   39        1.568   3.574   0.000   5.141
   40        1.568   3.574   0.000   5.141
   41        1.568   3.574   0.000   5.141
   42        1.568   3.574   0.000   5.141
   43        0.874   1.705   0.000   2.579
   44        0.874   1.705   0.000   2.579
   45        0.874   1.705   0.000   2.579
   46        0.874   1.705   0.000   2.579
   47        0.874   1.705   0.000   2.579
   48        0.874   1.705   0.000   2.579
   49        0.874   1.704   0.000   2.578
   50        0.874   1.704   0.000   2.578
   51        0.874   1.704   0.000   2.578
   52        0.874   1.704   0.000   2.578
   53        0.874   1.704   0.000   2.578
   54        0.874   1.704   0.000   2.578
   55        0.873   1.704   0.000   2.578
   56        0.873   1.704   0.000   2.578
   57        0.874   1.704   0.000   2.578
   58        0.873   1.704   0.000   2.578
   59        0.873   1.704   0.000   2.578
   60        0.873   1.704   0.000   2.578
   61        0.640   0.047   0.000   0.687
   62        0.640   0.047   0.000   0.687
   63        0.640   0.047   0.000   0.687
   64        0.640   0.047   0.000   0.687
   65        0.640   0.047   0.000   0.687
   66        0.640   0.047   0.000   0.687
   67        0.642   0.046   0.000   0.688
   68        0.642   0.046   0.000   0.688
   69        0.642   0.046   0.000   0.688
   70        0.642   0.046   0.000   0.688
   71        0.642   0.046   0.000   0.688
   72        0.642   0.046   0.000   0.688
   73        0.640   0.046   0.000   0.687
   74        0.640   0.046   0.000   0.687
   75        0.640   0.046   0.000   0.686
   76        0.640   0.046   0.000   0.687
   77        0.640   0.046   0.000   0.687
   78        0.640   0.046   0.000   0.686
   79        0.583   0.089   0.000   0.672
   80        0.583   0.089   0.000   0.672
   81        0.583   0.089   0.000   0.672
   82        0.583   0.089   0.000   0.672
   83        0.583   0.089   0.000   0.672
   84        0.583   0.089   0.000   0.672
   85        0.623   0.085   0.000   0.708
   86        0.623   0.085   0.000   0.708
   87        0.580   0.087   0.000   0.667
   88        0.580   0.087   0.000   0.667
   89        0.580   0.087   0.000   0.667
   90        0.580   0.087   0.000   0.667
   91        0.580   0.087   0.000   0.667
   92        0.580   0.087   0.000   0.667
   93        0.623   0.084   0.000   0.707
   94        0.623   0.084   0.000   0.707
   95        0.582   0.088   0.000   0.670
   96        0.582   0.088   0.000   0.670
   97        0.582   0.088   0.000   0.670
   98        0.582   0.088   0.000   0.670
   99        0.582   0.088   0.000   0.670
  100        0.582   0.088   0.000   0.670
  101        0.623   0.084   0.000   0.708
  102        0.623   0.084   0.000   0.708
  103        1.224   2.810   0.000   4.034
  104        1.224   2.810   0.000   4.034
  105        1.223   2.804   0.000   4.028
  106        1.223   2.804   0.000   4.028
  107        1.224   2.807   0.000   4.031
  108        1.224   2.807   0.000   4.031
--------------------------------------------------
tot        106.361 215.955  29.601 351.918



 magnetization (x)

# of ion       s       p       d       tot
------------------------------------------
    1        0.021   0.020   4.462   4.503
    2        0.021   0.020   4.462   4.503
    3        0.021   0.020   4.462   4.503
    4       -0.021  -0.020  -4.462  -4.503
    5       -0.021  -0.020  -4.462  -4.503
    6       -0.021  -0.020  -4.462  -4.503
    7        0.004   0.014   0.000   0.018
    8        0.004   0.014   0.000   0.018
    9        0.004   0.014   0.000   0.018
   10       -0.004  -0.014   0.000  -0.018
   11       -0.004  -0.014   0.000  -0.018
   12       -0.004  -0.014   0.000  -0.018
   13       -0.004  -0.013   0.000  -0.017
   14       -0.004  -0.013   0.000  -0.017
   15       -0.004  -0.013   0.000  -0.017
   16        0.004   0.013   0.000   0.017
   17        0.004   0.013   0.000   0.017
   18        0.004   0.013   0.000   0.017
   19        0.004   0.013   0.000   0.017
   20        0.004   0.013   0.000   0.017
   21        0.004   0.013   0.000   0.017
   22       -0.004  -0.013   0.000  -0.017
   23       -0.004  -0.013   0.000  -0.017
   24       -0.004  -0.013   0.000  -0.017
   25       -0.004  -0.015   0.000  -0.018
   26       -0.004  -0.015   0.000  -0.018
   27       -0.004  -0.015   0.000  -0.018
   28        0.004   0.015   0.000   0.018
   29        0.004   0.015   0.000   0.018
   30        0.004   0.015   0.000   0.018
   31        0.004   0.014   0.000   0.017
   32        0.004   0.014   0.000   0.017
   33        0.004   0.014   0.000   0.017
   34       -0.004  -0.014   0.000  -0.017
   35       -0.004  -0.014   0.000  -0.017
   36       -0.004  -0.014   0.000  -0.017
   37       -0.004  -0.013   0.000  -0.017
   38       -0.004  -0.013   0.000  -0.017
   39       -0.004  -0.013   0.000  -0.017
   40        0.004   0.013   0.000   0.017
   41        0.004   0.013   0.000   0.017
   42        0.004   0.013   0.000   0.017
   43       -0.000  -0.002   0.000  -0.002
   44       -0.000  -0.002   0.000  -0.002
   45       -0.000  -0.002   0.000  -0.002
   46        0.000   0.002   0.000   0.002
   47        0.000   0.002   0.000   0.002
   48        0.000   0.002   0.000   0.002
   49       -0.000  -0.003   0.000  -0.003
   50       -0.000  -0.003   0.000  -0.003
   51       -0.000  -0.003   0.000  -0.003
   52        0.000   0.003   0.000   0.003
   53        0.000   0.003   0.000   0.003
   54        0.000   0.003   0.000   0.003
   55        0.000   0.003   0.000   0.004
   56        0.000   0.003   0.000   0.004
   57        0.000   0.003   0.000   0.004
   58       -0.000  -0.003   0.000  -0.004
   59       -0.000  -0.003   0.000  -0.004
   60       -0.000  -0.003   0.000  -0.004
   61        0.000  -0.000   0.000   0.000
   62        0.000  -0.000   0.000   0.000
   63        0.000  -0.000   0.000   0.000
   64       -0.000   0.000   0.000  -0.000
   65       -0.000   0.000   0.000  -0.000
   66       -0.000   0.000   0.000  -0.000
   67       -0.000  -0.000   0.000  -0.000
   68       -0.000  -0.000   0.000  -0.000
   69       -0.000  -0.000   0.000  -0.000
   70        0.000   0.000   0.000   0.000
   71        0.000   0.000   0.000   0.000
   72        0.000   0.000   0.000   0.000
   73       -0.000   0.000   0.000   0.000
   74       -0.000   0.000   0.000   0.000
   75       -0.000   0.000   0.000   0.000
   76        0.000  -0.000   0.000  -0.000
   77        0.000  -0.000   0.000  -0.000
   78        0.000  -0.000   0.000  -0.000
   79        0.000   0.000   0.000   0.000
   80        0.000   0.000   0.000   0.000
   81        0.000   0.000   0.000   0.000
   82       -0.000  -0.000   0.000  -0.000
   83       -0.000  -0.000   0.000  -0.000
   84       -0.000  -0.000   0.000  -0.000
   85       -0.000   0.000   0.000   0.000
   86        0.000  -0.000   0.000  -0.000
   87        0.000   0.000   0.000   0.000
   88        0.000   0.000   0.000   0.000
   89        0.000   0.000   0.000   0.000
   90       -0.000  -0.000   0.000  -0.000
   91       -0.000  -0.000   0.000  -0.000
   92       -0.000  -0.000   0.000  -0.000
   93       -0.000   0.000   0.000   0.000
   94        0.000  -0.000   0.000  -0.000
   95       -0.000  -0.000   0.000  -0.000
   96       -0.000  -0.000   0.000  -0.000
   97       -0.000  -0.000   0.000  -0.000
   98        0.000   0.000   0.000   0.000
   99        0.000   0.000   0.000   0.000
  100        0.000   0.000   0.000   0.000
  101        0.000  -0.000   0.000  -0.000
  102       -0.000   0.000   0.000   0.000
  103        0.000   0.001   0.000   0.001
  104       -0.000  -0.001   0.000  -0.001
  105        0.000   0.001   0.000   0.001
  106       -0.000  -0.001   0.000  -0.001
  107       -0.000  -0.001   0.000  -0.001
  108        0.000   0.001   0.000   0.001
--------------------------------------------------
tot         -0.000   0.000  -0.000   0.000
 

 total amount of memory used by VASP MPI-rank0  5020894. kBytes
=======================================================================

   base      :      30000. kBytes
   nonl-proj :    3976162. kBytes
   fftplans  :      28595. kBytes
   grid      :     114170. kBytes
   one-center:       3359. kBytes
   wavefun   :     868608. kBytes
 
  
  
 General timing and accounting informations for this job:
 ========================================================
  
                  Total CPU time used (sec):    26268.891
                            User time (sec):    26201.924
                          System time (sec):       66.967
                         Elapsed time (sec):    26208.278
  
                   Maximum memory used (kb):     4158656.
                   Average memory used (kb):          N/A
  
                          Minor page faults:      5305210
                          Major page faults:            5
                 Voluntary context switches:       350285
