 vasp.6.3.0 20Jan22 (build Feb 18 2022 09:23:16) complex                         
 executed on            Scout-CPU date 2022.04.22  15:06:53
 running on  120 total cores
 distrk:  each k-point on   60 cores,    2 groups
 distr:  one band on NCORE=   1 cores,   60 groups


--------------------------------------------------------------------------------------------------------


 INCAR:
   AMIX = 0.1
   SYMPREC = 1.0d-3
   IVDW = 11           (DFT-D3 method of method with no damping)
   ISPIN = 2 (Spin polarised DFT)
   ISTART = 1            (Read existing wavefunction
   ICHARG = 11         (Non-self-consistent: GGA/LDA band structures)
   LORBIT = 11
   LASPH = T
   GGA_COMPAT = .FALSE.
   LREAL = .FALSE.       (Projection operators: automatic)
   ENCUT = 850.0      (Cut-off energy for plane wave basis set, in eV)
   ENAUG = 1500.0
   PREC = Accurate     (Precision level)
   LMAXMIX = 4
   LWAVE = F
   LCHARG = F
   ADDGRID = .TRUE.        (Increase grid
   LPLANE = .TRUE.      (Real space distribution
   NWRITE = 2           (Medium-level output)
   KPAR = 2           (Divides k-grid into separate groups)
   NSW = 0          (number of ionic steps)
   ISMEAR = 0            (gaussian smearing method )
   SIGMA = 0.05         (please check the width of the smearing)
   IBRION = 2            (Algorithm: 0-MD
   POTIM = 0.1
   ISIF = 3            (optimize atomic coordinates and lattice parameters)
   EDIFFG = -0.005       (Ionic convergence
   EDIFF = 1.0d-8
   NELM = 50
   NELMIN = 6
   NELMDL = -8
   ALGO = Normal
   MAGMOM = 4 4 4 -4 -4 -4 36*0 18*0 42*0 6*0
   LCALCPOL = T

 POTCAR:    PAW_PBE Ni 02Aug2007                  
 POTCAR:    PAW_PBE O 08Apr2002                   
 POTCAR:    PAW_PBE C 08Apr2002                   
 POTCAR:    PAW_PBE H 15Jun2001                   
 POTCAR:    PAW_PBE N 08Apr2002                   
 -----------------------------------------------------------------------------
|                                                                             |
|           W    W    AA    RRRRR   N    N  II  N    N   GGGG   !!!           |
|           W    W   A  A   R    R  NN   N  II  NN   N  G    G  !!!           |
|           W    W  A    A  R    R  N N  N  II  N N  N  G       !!!           |
|           W WW W  AAAAAA  RRRRR   N  N N  II  N  N N  G  GGG   !            |
|           WW  WW  A    A  R   R   N   NN  II  N   NN  G    G                |
|           W    W  A    A  R    R  N    N  II  N    N   GGGG   !!!           |
|                                                                             |
|     For optimal performance we recommend to set                             |
|       NCORE = 2 up to number-of-cores-per-socket                            |
|     NCORE specifies how many cores store one orbital (NPAR=cpu/NCORE).      |
|     This setting can greatly improve the performance of VASP for DFT.       |
|     The default, NCORE=1 might be grossly inefficient on modern             |
|     multi-core architectures or massively parallel machines. Do your        |
|     own testing! More info at https://www.vasp.at/wiki/index.php/NCORE      |
|     Unfortunately you need to use the default for GW and RPA                |
|     calculations (for HF NCORE is supported but not extensively tested      |
|     yet).                                                                   |
|                                                                             |
 -----------------------------------------------------------------------------

 POTCAR:    PAW_PBE Ni 02Aug2007                  
   SHA256 =  0534bc51ca8003dfef23f56753fef9fdd3e22eac8d719fccacb59f3e6b7a69c7 Ni/POTCAR             
   COPYR  = (c) Copyright 02Aug2007 Georg Kresse                                                    
   COPYR  = This file is part of the software VASP. Any use, copying, and all other rights are regul
   COPYR  = If you do not have a valid VASP license, you may not use, copy or distribute this file. 
   VRHFIN =Ni:                                                                                      
   LEXCH  = PE                                                                                      
   EATOM  =  1077.6739 eV,   79.2068 Ry                                                             
                                                                                                    
   TITEL  = PAW_PBE Ni 02Aug2007                                                                    
   LULTRA =        F    use ultrasoft PP ?                                                          
   IUNSCR =        1    unscreen: 0-lin 1-nonlin 2-no                                               
   RPACOR =    2.000    partial core radius                                                         
   POMASS =   58.690; ZVAL   =   10.000    mass and valenz                                          
   RCORE  =    2.300    outmost cutoff radius                                                       
   RWIGS  =    2.430; RWIGS  =    1.286    wigner-seitz radius (au A)                               
   ENMAX  =  269.532; ENMIN  =  202.149 eV                                                          
   RCLOC  =    1.201    cutoff for local pot                                                        
   LCOR   =        T    correct aug charges                                                         
   LPAW   =        T    paw PP                                                                      
   EAUG   =  544.565                                                                                
   DEXC   =    0.000                                                                                
   RMAX   =    2.357    core radius for proj-oper                                                   
   RAUG   =    1.300    factor for augmentation sphere                                              
   RDEP   =    2.390    radius for radial grids                                                     
   RDEPT  =    1.838    core radius for aug-charge                                                  
                                                                                                    
   Atomic configuration                                                                             
    9 entries                                                                                       
     n  l   j            E        occ.                                                              
     1  0  0.50     -8206.4253   2.0000                                                             
     2  0  0.50      -976.1748   2.0000                                                             
     2  1  1.50      -839.0571   6.0000                                                             
     3  0  0.50      -105.9991   2.0000                                                             
     3  1  1.50       -66.4603   6.0000                                                             
     3  2  2.50        -4.6458   9.0000                                                             
     4  0  0.50        -4.4926   1.0000                                                             
     4  1  1.50        -4.0817   0.0000                                                             
     4  3  2.50        -1.3606   0.0000                                                             
   Description                                                                                      
     l       E           TYP  RCUT    TYP  RCUT                                                     
     2     -4.6457903     23  2.300                                                                 
     2     -6.0063729     23  2.300                                                                 
     0     -4.4925590     23  2.300                                                                 
     0      5.0102601     23  2.300                                                                 
     1     -2.7211652     23  2.300                                                                 
     1     16.5183231     23  2.300                                                                 
  local pseudopotential read in
  partial core-charges read in
  partial kinetic energy density read in
  atomic valenz-charges read in
  non local Contribution for L=            2  read in
    real space projection operators read in
  non local Contribution for L=            2  read in
    real space projection operators read in
  non local Contribution for L=            0  read in
    real space projection operators read in
  non local Contribution for L=            0  read in
    real space projection operators read in
  non local Contribution for L=            1  read in
    real space projection operators read in
  non local Contribution for L=            1  read in
    real space projection operators read in
    PAW grid and wavefunctions read in
 
   number of l-projection  operators is LMAX  =            6
   number of lm-projection operators is LMMAX =           18
 
 POTCAR:    PAW_PBE O 08Apr2002                   
   SHA256 =  818f92134a0a090dccd8ba1447fa70422a3b330e708bb4f08108d8ae51209ddf O/POTCAR              
   COPYR  = (c) Copyright 08Apr2002 Georg Kresse                                                    
   COPYR  = This file is part of the software VASP. Any use, copying, and all other rights are regul
   COPYR  = If you do not have a valid VASP license, you may not use, copy or distribute this file. 
   VRHFIN =O: s2p4                                                                                  
   LEXCH  = PE                                                                                      
   EATOM  =   432.3788 eV,   31.7789 Ry                                                             
                                                                                                    
   TITEL  = PAW_PBE O 08Apr2002                                                                     
   LULTRA =        F    use ultrasoft PP ?                                                          
   IUNSCR =        1    unscreen: 0-lin 1-nonlin 2-no                                               
   RPACOR =    1.200    partial core radius                                                         
   POMASS =   16.000; ZVAL   =    6.000    mass and valenz                                          
   RCORE  =    1.520    outmost cutoff radius                                                       
   RWIGS  =    1.550; RWIGS  =    0.820    wigner-seitz radius (au A)                               
   ENMAX  =  400.000; ENMIN  =  300.000 eV                                                          
   ICORE  =        2    local potential                                                             
   LCOR   =        T    correct aug charges                                                         
   LPAW   =        T    paw PP                                                                      
   EAUG   =  605.392                                                                                
   DEXC   =    0.000                                                                                
   RMAX   =    1.553    core radius for proj-oper                                                   
   RAUG   =    1.300    factor for augmentation sphere                                              
   RDEP   =    1.550    radius for radial grids                                                     
   RDEPT  =    1.329    core radius for aug-charge                                                  
                                                                                                    
   Atomic configuration                                                                             
    4 entries                                                                                       
     n  l   j            E        occ.                                                              
     1  0  0.50      -514.6923   2.0000                                                             
     2  0  0.50       -23.9615   2.0000                                                             
     2  1  0.50        -9.0305   4.0000                                                             
     3  2  1.50        -9.5241   0.0000                                                             
   Description                                                                                      
     l       E           TYP  RCUT    TYP  RCUT                                                     
     0    -23.9615318     23  1.200                                                                 
     0     -9.5240782     23  1.200                                                                 
     1     -9.0304911     23  1.520                                                                 
     1      8.1634956     23  1.520                                                                 
     2     -9.5240782      7  1.500                                                                 
  local pseudopotential read in
  partial core-charges read in
  partial kinetic energy density read in
  kinetic energy density of atom read in
  atomic valenz-charges read in
  non local Contribution for L=            0  read in
    real space projection operators read in
  non local Contribution for L=            0  read in
    real space projection operators read in
  non local Contribution for L=            1  read in
    real space projection operators read in
  non local Contribution for L=            1  read in
    real space projection operators read in
    PAW grid and wavefunctions read in
 
   number of l-projection  operators is LMAX  =            4
   number of lm-projection operators is LMMAX =            8
 
 POTCAR:    PAW_PBE C 08Apr2002                   
   SHA256 =  253f7b50bb8d59471dbedb8285d89021f4a42ed1a2c5d38a03a736e69125dd95 C/POTCAR              
   COPYR  = (c) Copyright 08Apr2002 Georg Kresse                                                    
   COPYR  = This file is part of the software VASP. Any use, copying, and all other rights are regul
   COPYR  = If you do not have a valid VASP license, you may not use, copy or distribute this file. 
   VRHFIN =C: s2p2                                                                                  
   LEXCH  = PE                                                                                      
   EATOM  =   147.1560 eV,   10.8157 Ry                                                             
                                                                                                    
   TITEL  = PAW_PBE C 08Apr2002                                                                     
   LULTRA =        F    use ultrasoft PP ?                                                          
   IUNSCR =        1    unscreen: 0-lin 1-nonlin 2-no                                               
   RPACOR =    1.200    partial core radius                                                         
   POMASS =   12.011; ZVAL   =    4.000    mass and valenz                                          
   RCORE  =    1.500    outmost cutoff radius                                                       
   RWIGS  =    1.630; RWIGS  =    0.863    wigner-seitz radius (au A)                               
   ENMAX  =  400.000; ENMIN  =  300.000 eV                                                          
   ICORE  =        2    local potential                                                             
   LCOR   =        T    correct aug charges                                                         
   LPAW   =        T    paw PP                                                                      
   EAUG   =  644.873                                                                                
   DEXC   =    0.000                                                                                
   RMAX   =    1.529    core radius for proj-oper                                                   
   RAUG   =    1.300    factor for augmentation sphere                                              
   RDEP   =    1.501    radius for radial grids                                                     
   RDEPT  =    1.300    core radius for aug-charge                                                  
                                                                                                    
   Atomic configuration                                                                             
    4 entries                                                                                       
     n  l   j            E        occ.                                                              
     1  0  0.50      -273.3789   2.0000                                                             
     2  0  0.50       -13.7508   2.0000                                                             
     2  1  0.50        -5.2854   2.0000                                                             
     3  2  1.50        -5.4423   0.0000                                                             
   Description                                                                                      
     l       E           TYP  RCUT    TYP  RCUT                                                     
     0    -13.7508458     23  1.200                                                                 
     0     -8.2022199     23  1.200                                                                 
     1     -5.2854383     23  1.500                                                                 
     1     34.0145650     23  1.500                                                                 
     2     -5.4423304      7  1.500                                                                 
  local pseudopotential read in
  partial core-charges read in
  partial kinetic energy density read in
  atomic valenz-charges read in
  non local Contribution for L=            0  read in
    real space projection operators read in
  non local Contribution for L=            0  read in
    real space projection operators read in
  non local Contribution for L=            1  read in
    real space projection operators read in
  non local Contribution for L=            1  read in
    real space projection operators read in
    PAW grid and wavefunctions read in
 
   number of l-projection  operators is LMAX  =            4
   number of lm-projection operators is LMMAX =            8
 
 POTCAR:    PAW_PBE H 15Jun2001                   
   SHA256 =  030f79b5d3ab3cf0e668861823c8fb652ff669f3e15e46930bd03bfd63a607b6 H/POTCAR              
   COPYR  = (c) Copyright 15Jun2001 Georg Kresse                                                    
   COPYR  = This file is part of the software VASP. Any use, copying, and all other rights are regul
   COPYR  = If you do not have a valid VASP license, you may not use, copy or distribute this file. 
   VRHFIN =H: ultrasoft test                                                                        
   LEXCH  = PE                                                                                      
   EATOM  =    12.4884 eV,    0.9179 Ry                                                             
                                                                                                    
   TITEL  = PAW_PBE H 15Jun2001                                                                     
   LULTRA =        F    use ultrasoft PP ?                                                          
   IUNSCR =        0    unscreen: 0-lin 1-nonlin 2-no                                               
   RPACOR =    0.000    partial core radius                                                         
   POMASS =    1.000; ZVAL   =    1.000    mass and valenz                                          
   RCORE  =    1.100    outmost cutoff radius                                                       
   RWIGS  =    0.700; RWIGS  =    0.370    wigner-seitz radius (au A)                               
   ENMAX  =  250.000; ENMIN  =  200.000 eV                                                          
   RCLOC  =    0.701    cutoff for local pot                                                        
   LCOR   =        T    correct aug charges                                                         
   LPAW   =        T    paw PP                                                                      
   EAUG   =  400.000                                                                                
   RMAX   =    1.123    core radius for proj-oper                                                   
   RAUG   =    1.200    factor for augmentation sphere                                              
   RDEP   =    1.112    radius for radial grids                                                     
   RDEPT  =    0.926    core radius for aug-charge                                                  
                                                                                                    
   Atomic configuration                                                                             
    2 entries                                                                                       
     n  l   j            E        occ.                                                              
     1  0  0.50        -6.4927   1.0000                                                             
     2  1  0.50        -3.4015   0.0000                                                             
   Description                                                                                      
     l       E           TYP  RCUT    TYP  RCUT                                                     
     0     -6.4927494     23  1.100                                                                 
     0      6.8029130     23  1.100                                                                 
     1     -4.0817478     23  1.100                                                                 
  local pseudopotential read in
  atomic valenz-charges read in
  non local Contribution for L=            0  read in
    real space projection operators read in
  non local Contribution for L=            0  read in
    real space projection operators read in
  non local Contribution for L=            1  read in
    real space projection operators read in
    PAW grid and wavefunctions read in
 
   number of l-projection  operators is LMAX  =            3
   number of lm-projection operators is LMMAX =            5
 
 POTCAR:    PAW_PBE N 08Apr2002                   
   SHA256 =  e053789ff3a61a86a1b75d8a110fcc91f86041011e7b0817c7c99e4e8a6349d7 N/POTCAR              
   COPYR  = (c) Copyright 08Apr2002 Georg Kresse                                                    
   COPYR  = This file is part of the software VASP. Any use, copying, and all other rights are regul
   COPYR  = If you do not have a valid VASP license, you may not use, copy or distribute this file. 
   VRHFIN =N: s2p3                                                                                  
   LEXCH  = PE                                                                                      
   EATOM  =   264.5486 eV,   19.4438 Ry                                                             
                                                                                                    
   TITEL  = PAW_PBE N 08Apr2002                                                                     
   LULTRA =        F    use ultrasoft PP ?                                                          
   IUNSCR =        1    unscreen: 0-lin 1-nonlin 2-no                                               
   RPACOR =    1.200    partial core radius                                                         
   POMASS =   14.001; ZVAL   =    5.000    mass and valenz                                          
   RCORE  =    1.500    outmost cutoff radius                                                       
   RWIGS  =    1.400; RWIGS  =    0.741    wigner-seitz radius (au A)                               
   ENMAX  =  400.000; ENMIN  =  300.000 eV                                                          
   ICORE  =        2    local potential                                                             
   LCOR   =        T    correct aug charges                                                         
   LPAW   =        T    paw PP                                                                      
   EAUG   =  627.112                                                                                
   DEXC   =    0.000                                                                                
   RMAX   =    1.529    core radius for proj-oper                                                   
   RAUG   =    1.300    factor for augmentation sphere                                              
   RDEP   =    1.514    radius for radial grids                                                     
   RDEPT  =    1.338    core radius for aug-charge                                                  
                                                                                                    
   Atomic configuration                                                                             
    4 entries                                                                                       
     n  l   j            E        occ.                                                              
     1  0  0.50      -384.7179   2.0000                                                             
     2  0  0.50       -18.5828   2.0000                                                             
     2  1  0.50        -7.0898   3.0000                                                             
     3  2  1.50        -6.8029   0.0000                                                             
   Description                                                                                      
     l       E           TYP  RCUT    TYP  RCUT                                                     
     0    -18.5828119     23  1.200                                                                 
     0    -13.5018863     23  1.200                                                                 
     1     -7.0897853     23  1.500                                                                 
     1      9.5240782     23  1.500                                                                 
     2     -6.8029130      7  1.500                                                                 
  local pseudopotential read in
  partial core-charges read in
  partial kinetic energy density read in
  atomic valenz-charges read in
  non local Contribution for L=            0  read in
    real space projection operators read in
  non local Contribution for L=            0  read in
    real space projection operators read in
  non local Contribution for L=            1  read in
    real space projection operators read in
  non local Contribution for L=            1  read in
    real space projection operators read in
    PAW grid and wavefunctions read in
 
   number of l-projection  operators is LMAX  =            4
   number of lm-projection operators is LMMAX =            8
 
 -----------------------------------------------------------------------------
|                                                                             |
|               ----> ADVICE to this user running VASP <----                  |
|                                                                             |
|     You have a (more or less) 'large supercell' and for larger cells it     |
|     might be more efficient to use real-space projection operators.         |
|     Therefore, try LREAL= Auto in the INCAR file.                           |
|     Mind: For very accurate calculation, you might also keep the            |
|     reciprocal projection scheme (i.e. LREAL=.FALSE.).                      |
|                                                                             |
 -----------------------------------------------------------------------------

  PAW_PBE Ni 02Aug2007                  :
 energy of atom  1       EATOM=-1077.6739
 kinetic energy error for atom=    0.0005 (will be added to EATOM!!)
  PAW_PBE O 08Apr2002                   :
 energy of atom  2       EATOM= -432.3788
 kinetic energy error for atom=    0.0031 (will be added to EATOM!!)
  PAW_PBE C 08Apr2002                   :
 energy of atom  3       EATOM= -147.1560
 kinetic energy error for atom=    0.0012 (will be added to EATOM!!)
  PAW_PBE H 15Jun2001                   :
 energy of atom  4       EATOM=  -12.4884
 kinetic energy error for atom=    0.0002 (will be added to EATOM!!)
  PAW_PBE N 08Apr2002                   :
 energy of atom  5       EATOM= -264.5486
 kinetic energy error for atom=    0.0021 (will be added to EATOM!!)
 
 
 POSCAR: crystal
  positions in direct lattice
  velocities in cartesian coordinates
 exchange correlation table for  LEXCH =        8
   RHO(1)=    0.500       N(1)  =     2000
   RHO(2)=  100.500       N(2)  =     4000
 


--------------------------------------------------------------------------------------------------------


 ion  position               nearest neighbor table
   1  0.335  0.332  0.587-  18 2.09   7 2.09  31 2.09  28 2.10  41 2.10  19 2.10
   2  0.668  0.003  0.587-  16 2.09   8 2.09  32 2.09  29 2.10  42 2.10  20 2.10
   3  0.997  0.665  0.587-  17 2.09   9 2.09  33 2.09  30 2.10  40 2.10  21 2.10
   4  0.665  0.668  0.087-  15 2.09  10 2.09  34 2.09  25 2.10  38 2.10  22 2.10
   5  0.332  0.997  0.087-  13 2.09  11 2.09  35 2.09  26 2.10  39 2.10  23 2.10
   6  0.003  0.335  0.087-  14 2.09  12 2.09  36 2.09  27 2.10  37 2.10  24 2.10
   7  0.425  0.263  0.444-  43 1.28   1 2.09
   8  0.737  0.162  0.444-  44 1.28   2 2.09
   9  0.838  0.575  0.444-  45 1.28   3 2.09
  10  0.575  0.737  0.944-  46 1.28   4 2.09
  11  0.263  0.838  0.944-  47 1.28   5 2.09
  12  0.162  0.425  0.944-  48 1.28   6 2.09
  13  0.427  0.153  0.231-  43 1.27   5 2.09
  14  0.847  0.273  0.231-  44 1.27   6 2.09
  15  0.727  0.573  0.231-  45 1.27   4 2.09
  16  0.573  0.847  0.731-  46 1.27   2 2.09
  17  0.153  0.727  0.731-  47 1.27   3 2.09
  18  0.273  0.427  0.731-  48 1.27   1 2.09
  19  0.401  0.491  0.443-  49 1.28   1 2.10
  20  0.509  0.910  0.443-  50 1.28   2 2.10
  21  0.090  0.599  0.443-  51 1.28   3 2.10
  22  0.599  0.509  0.943-  52 1.28   4 2.10
  23  0.491  0.090  0.943-  53 1.28   5 2.10
  24  0.910  0.401  0.943-  54 1.28   6 2.10
  25  0.506  0.604  0.229-  49 1.27   4 2.10
  26  0.396  0.902  0.229-  50 1.27   5 2.10
  27  0.098  0.494  0.229-  51 1.27   6 2.10
  28  0.494  0.396  0.729-  52 1.27   1 2.10
  29  0.604  0.098  0.729-  53 1.27   2 2.10
  30  0.902  0.506  0.729-  54 1.27   3 2.10
  31  0.176  0.238  0.445-  55 1.27   1 2.09
  32  0.762  0.938  0.445-  56 1.27   2 2.09
  33  0.062  0.824  0.445-  57 1.27   3 2.09
  34  0.824  0.762  0.945-  58 1.27   4 2.09
  35  0.238  0.062  0.945-  59 1.27   5 2.09
  36  0.938  0.176  0.945-  60 1.27   6 2.09
  37  0.070  0.243  0.230-  55 1.28   6 2.10
  38  0.757  0.827  0.230-  56 1.28   4 2.10
  39  0.173  0.930  0.230-  57 1.28   5 2.10
  40  0.930  0.757  0.730-  58 1.28   3 2.10
  41  0.243  0.173  0.730-  59 1.28   1 2.10
  42  0.827  0.070  0.730-  60 1.28   2 2.10
  43  0.370  0.183  0.332-  61 1.10  13 1.27   7 1.28
  44  0.817  0.187  0.332-  62 1.10  14 1.27   8 1.28
  45  0.813  0.630  0.332-  63 1.10  15 1.27   9 1.28
  46  0.630  0.817  0.832-  64 1.10  16 1.27  10 1.28
  47  0.183  0.813  0.832-  65 1.10  17 1.27  11 1.28
  48  0.187  0.370  0.832-  66 1.10  18 1.27  12 1.28
  49  0.475  0.514  0.325-  67 1.10  25 1.27  19 1.28
  50  0.486  0.961  0.325-  68 1.10  26 1.27  20 1.28
  51  0.039  0.525  0.325-  69 1.10  27 1.27  21 1.28
  52  0.525  0.486  0.825-  70 1.10  28 1.27  22 1.28
  53  0.514  0.039  0.825-  71 1.10  29 1.27  23 1.28
  54  0.961  0.475  0.825-  72 1.10  30 1.27  24 1.28
  55  0.145  0.295  0.347-  73 1.10  31 1.27  37 1.28
  56  0.705  0.850  0.347-  74 1.10  32 1.27  38 1.28
  57  0.150  0.855  0.347-  75 1.10  33 1.27  39 1.28
  58  0.855  0.705  0.847-  76 1.10  34 1.27  40 1.28
  59  0.295  0.150  0.847-  77 1.10  35 1.27  41 1.28
  60  0.850  0.145  0.847-  78 1.10  36 1.27  42 1.28
  61  0.269  0.139  0.326-  43 1.10
  62  0.861  0.130  0.326-  44 1.10
  63  0.870  0.731  0.326-  45 1.10
  64  0.731  0.861  0.826-  46 1.10
  65  0.139  0.870  0.826-  47 1.10
  66  0.130  0.269  0.826-  48 1.10
  67  0.513  0.452  0.306-  49 1.10
  68  0.548  0.061  0.306-  50 1.10
  69  0.939  0.487  0.306-  51 1.10
  70  0.487  0.548  0.806-  52 1.10
  71  0.452  0.939  0.806-  53 1.10
  72  0.061  0.513  0.806-  54 1.10
  73  0.185  0.396  0.361-  55 1.10
  74  0.604  0.789  0.361-  56 1.10
  75  0.211  0.815  0.361-  57 1.10
  76  0.815  0.604  0.861-  58 1.10
  77  0.396  0.211  0.861-  59 1.10
  78  0.789  0.185  0.861-  60 1.10
  79  0.577  0.307  0.499- 103 1.05
  80  0.693  0.270  0.499- 103 1.05
  81  0.730  0.423  0.499- 103 1.05
  82  0.423  0.693  0.999- 104 1.05
  83  0.307  0.730  0.999- 104 1.05
  84  0.270  0.577  0.999- 104 1.05
  85  0.667  0.333  0.662- 103 1.02
  86  0.333  0.667  0.162- 104 1.02
  87  0.358  0.603  0.499- 105 1.05
  88  0.397  0.756  0.499- 105 1.05
  89  0.244  0.642  0.499- 105 1.05
  90  0.642  0.397  0.999- 106 1.05
  91  0.603  0.244  0.999- 106 1.05
  92  0.756  0.358  0.999- 106 1.05
  93  0.333  0.667  0.662- 105 1.02
  94  0.667  0.333  0.162- 106 1.02
  95  0.026  0.089  0.174- 107 1.05
  96  0.911  0.937  0.174- 107 1.05
  97  0.063  0.974  0.174- 107 1.05
  98  0.974  0.911  0.674- 108 1.05
  99  0.089  0.063  0.674- 108 1.05
 100  0.937  0.026  0.674- 108 1.05
 101  0.000  0.000  0.011- 107 1.02
 102  0.000  0.000  0.511- 108 1.02
 103  0.667  0.333  0.539-  85 1.02  80 1.05  81 1.05  79 1.05
 104  0.333  0.667  0.039-  86 1.02  83 1.05  84 1.05  82 1.05
 105  0.333  0.667  0.538-  93 1.02  89 1.05  88 1.05  87 1.05
 106  0.667  0.333  0.038-  94 1.02  92 1.05  91 1.05  90 1.05
 107  0.000  0.000  0.135- 101 1.02  97 1.05  96 1.05  95 1.05
 108  0.000  0.000  0.635- 102 1.02 100 1.05  99 1.05  98 1.05
 
  LATTYP: Found a hexagonal cell.
 ALAT       =    12.5319501838
 C/A-ratio  =     0.6584926866
  
  Lattice vectors:
  
 A1 = (  12.5319501826,  -0.0001670422,   0.0000000000)
 A2 = (  -6.2658304285,  10.8530707382,  -0.0000000000)
 A3 = (  -0.0000000000,  -0.0000000000,   8.2521975450)


Analysis of symmetry for initial positions (statically):
=====================================================================
 Subroutine PRICEL returns:
 Original cell was already a primitive cell.
 

 Routine SETGRP: Setting up the symmetry group for a 
 hexagonal supercell.


 Subroutine GETGRP returns: Found  6 space group operations
 (whereof  3 operations were pure point group operations)
 out of a pool of 24 trial point group operations.


The static configuration has the point symmetry C_3 .
 The point group associated with its full space group is C_6 .


Analysis of symmetry for dynamics (positions and initial velocities):
=====================================================================
 Subroutine PRICEL returns:
 Original cell was already a primitive cell.
 

 Routine SETGRP: Setting up the symmetry group for a 
 hexagonal supercell.


 Subroutine GETGRP returns: Found  6 space group operations
 (whereof  3 operations were pure point group operations)
 out of a pool of 24 trial point group operations.


The dynamic configuration has the point symmetry C_3 .
 The point group associated with its full space group is C_6 .


Analysis of structural, dynamic, and magnetic symmetry:
=====================================================================
 Subroutine PRICEL returns:
 Original cell was already a primitive cell.
 

 Routine SETGRP: Setting up the symmetry group for a 
 hexagonal supercell.


 Subroutine GETGRP returns: Found  6 space group operations
 (whereof  3 operations were pure point group operations)
 out of a pool of 24 trial point group operations.


The overall configuration has the point symmetry C_3 .
 The point group associated with its full space group is C_6 .


 Subroutine INISYM returns: Found  6 space group operations
 (whereof  3 operations are pure point group operations),
 and found     1 'primitive' translations


----------------------------------------------------------------------------------------

                                     Primitive cell                                     

  volume of cell :    1122.3739

  direct lattice vectors                    reciprocal lattice vectors
    12.531950183 -0.000167042  0.000000000     0.079796654  0.046069202  0.000000000
    -6.265830429 10.853070738 -0.000000000     0.000001228  0.092140531  0.000000000
    -0.000000000 -0.000000000  8.252197545     0.000000000  0.000000000  0.121179843

  length of vectors
    12.531950184 12.531950184  8.252197545     0.092140531  0.092140531  0.121179843

  position of ions in fractional coordinates (direct lattice)
     0.334870747  0.331789962  0.586596969
     0.668210038  0.003080784  0.586596969
     0.996919216  0.665129253  0.586596969
     0.665129253  0.668210038  0.086596969
     0.331789962  0.996919216  0.086596969
     0.003080784  0.334870747  0.086596969
     0.424546673  0.262942194  0.443718102
     0.737057806  0.161604479  0.443718102
     0.838395521  0.575453327  0.443718102
     0.575453327  0.737057806  0.943718102
     0.262942194  0.838395521  0.943718102
     0.161604479  0.424546673  0.943718102
     0.426727266  0.153268061  0.231388011
     0.846731939  0.273459205  0.231388011
     0.726540795  0.573272734  0.231388011
     0.573272734  0.846731939  0.731388011
     0.153268061  0.726540795  0.731388011
     0.273459205  0.426727266  0.731388011
     0.401036179  0.490738442  0.443270047
     0.509261558  0.910297737  0.443270047
     0.089702263  0.598963821  0.443270047
     0.598963821  0.509261558  0.943270047
     0.490738442  0.089702263  0.943270047
     0.910297737  0.401036179  0.943270047
     0.506410640  0.603920972  0.229351647
     0.396079028  0.902489668  0.229351647
     0.097510332  0.493589360  0.229351647
     0.493589360  0.396079028  0.729351647
     0.603920972  0.097510332  0.729351647
     0.902489668  0.506410640  0.729351647
     0.175980777  0.237884299  0.445209222
     0.762115701  0.938096478  0.445209222
     0.061903522  0.824019223  0.445209222
     0.824019223  0.762115701  0.945209222
     0.237884299  0.061903522  0.945209222
     0.938096478  0.175980777  0.945209222
     0.069929419  0.243057108  0.230426581
     0.756942892  0.826872311  0.230426581
     0.173127689  0.930070581  0.230426581
     0.930070581  0.756942892  0.730426581
     0.243057108  0.173127689  0.730426581
     0.826872311  0.069929419  0.730426581
     0.370091249  0.182993792  0.332388706
     0.817006208  0.187097457  0.332388706
     0.812902543  0.629908751  0.332388706
     0.629908751  0.817006208  0.832388706
     0.182993792  0.812902543  0.832388706
     0.187097457  0.370091249  0.832388706
     0.474860322  0.513854859  0.324539299
     0.486145141  0.961005464  0.324539299
     0.038994536  0.525139678  0.324539299
     0.525139678  0.486145141  0.824539299
     0.513854859  0.038994536  0.824539299
     0.961005464  0.474860322  0.824539299
     0.145203902  0.295440795  0.347155968
     0.704559205  0.849763107  0.347155968
     0.150236893  0.854796098  0.347155968
     0.854796098  0.704559205  0.847155968
     0.295440795  0.150236893  0.847155968
     0.849763107  0.145203902  0.847155968
     0.268992371  0.138879520  0.325500615
     0.861120480  0.130112851  0.325500615
     0.869887149  0.731007629  0.325500615
     0.731007629  0.861120480  0.825500615
     0.138879520  0.869887149  0.825500615
     0.130112851  0.268992371  0.825500615
     0.512928146  0.452302803  0.305917090
     0.547697197  0.060625344  0.305917090
     0.939374656  0.487071854  0.305917090
     0.487071854  0.547697197  0.805917090
     0.452302803  0.939374656  0.805917090
     0.060625344  0.512928146  0.805917090
     0.184567092  0.395640542  0.361086043
     0.604359458  0.788926550  0.361086043
     0.211073450  0.815432908  0.361086043
     0.815432908  0.604359458  0.861086043
     0.395640542  0.211073450  0.861086043
     0.788926550  0.184567092  0.861086043
     0.577367778  0.307464840  0.499079611
     0.692535160  0.269902938  0.499079611
     0.730097062  0.422632222  0.499079611
     0.422632222  0.692535160  0.999079611
     0.307464840  0.730097062  0.999079611
     0.269902938  0.577367778  0.999079611
     0.666700000  0.333300000  0.662446387
     0.333300000  0.666700000  0.162446387
     0.358488074  0.602580569  0.498827439
     0.397419431  0.755907505  0.498827439
     0.244092495  0.641511926  0.498827439
     0.641511926  0.397419431  0.998827439
     0.602580569  0.244092495  0.998827439
     0.755907505  0.358488074  0.998827439
     0.333300000  0.666700000  0.662207854
     0.666700000  0.333300000  0.162207854
     0.026354414  0.089490505  0.174043754
     0.910509495  0.936863909  0.174043754
     0.063136091  0.973645586  0.174043754
     0.973645586  0.910509495  0.674043754
     0.089490505  0.063136091  0.674043754
     0.936863909  0.026354414  0.674043754
     0.000000000  0.000000000  0.010715409
     0.000000000  0.000000000  0.510715409
     0.666700000  0.333300000  0.538653327
     0.333300000  0.666700000  0.038653327
     0.333300000  0.666700000  0.538336995
     0.666700000  0.333300000  0.038336995
     0.000000000  0.000000000  0.134542717
     0.000000000  0.000000000  0.634542717

  ion indices of the primitive-cell ions
   primitive index   ion index
                 1           1
                 2           2
                 3           3
                 4           4
                 5           5
                 6           6
                 7           7
                 8           8
                 9           9
                10          10
                11          11
                12          12
                13          13
                14          14
                15          15
                16          16
                17          17
                18          18
                19          19
                20          20
                21          21
                22          22
                23          23
                24          24
                25          25
                26          26
                27          27
                28          28
                29          29
                30          30
                31          31
                32          32
                33          33
                34          34
                35          35
                36          36
                37          37
                38          38
                39          39
                40          40
                41          41
                42          42
                43          43
                44          44
                45          45
                46          46
                47          47
                48          48
                49          49
                50          50
                51          51
                52          52
                53          53
                54          54
                55          55
                56          56
                57          57
                58          58
                59          59
                60          60
                61          61
                62          62
                63          63
                64          64
                65          65
                66          66
                67          67
                68          68
                69          69
                70          70
                71          71
                72          72
                73          73
                74          74
                75          75
                76          76
                77          77
                78          78
                79          79
                80          80
                81          81
                82          82
                83          83
                84          84
                85          85
                86          86
                87          87
                88          88
                89          89
                90          90
                91          91
                92          92
                93          93
                94          94
                95          95
                96          96
                97          97
                98          98
                99          99
               100         100
               101         101
               102         102
               103         103
               104         104
               105         105
               106         106
               107         107
               108         108

----------------------------------------------------------------------------------------

 
 
 KPOINTS: K-Spacing Value to Generate K-Mesh: 0.04

Automatic generation of k-mesh.
 Grid dimensions read from file:
 generate k-points for:    5    5    6

 Generating k-lattice:

  Cartesian coordinates                     Fractional coordinates (reciprocal lattice)
     0.015959331  0.009213840  0.000000000     0.200000000  0.000000000  0.000000000
     0.000000246  0.018428106  0.000000000    -0.000000000  0.200000000  0.000000000
     0.000000000  0.000000000  0.020196640     0.000000000  0.000000000  0.166666667

  Length of vectors
     0.018428106  0.018428106  0.020196640

  Shift w.r.t. Gamma in fractional coordinates (k-lattice)
     0.000000000  0.000000000  0.000000000

 
 Subroutine IBZKPT returns following result:
 ===========================================
 
 Found     20 irreducible k-points:
 
 Following reciprocal coordinates:
            Coordinates               Weight
  0.000000  0.000000  0.000000      1.000000
  0.200000  0.000000  0.000000      6.000000
  0.400000  0.000000  0.000000      6.000000
  0.200000  0.200000  0.000000      6.000000
  0.400000  0.200000  0.000000      6.000000
  0.000000  0.000000  0.166667      2.000000
  0.200000  0.000000  0.166667     12.000000
  0.400000  0.000000  0.166667     12.000000
  0.200000  0.200000  0.166667     12.000000
  0.400000  0.200000  0.166667     12.000000
  0.000000  0.000000  0.333333      2.000000
  0.200000  0.000000  0.333333     12.000000
  0.400000  0.000000  0.333333     12.000000
  0.200000  0.200000  0.333333     12.000000
  0.400000  0.200000  0.333333     12.000000
  0.000000  0.000000  0.500000      1.000000
  0.200000  0.000000  0.500000      6.000000
  0.400000  0.000000  0.500000      6.000000
  0.200000  0.200000  0.500000      6.000000
  0.400000  0.200000  0.500000      6.000000
 
 Following cartesian coordinates:
            Coordinates               Weight
  0.000000  0.000000  0.000000      1.000000
  0.015959  0.009214  0.000000      6.000000
  0.031919  0.018428  0.000000      6.000000
  0.015960  0.027642  0.000000      6.000000
  0.031919  0.036856  0.000000      6.000000
  0.000000  0.000000  0.020197      2.000000
  0.015959  0.009214  0.020197     12.000000
  0.031919  0.018428  0.020197     12.000000
  0.015960  0.027642  0.020197     12.000000
  0.031919  0.036856  0.020197     12.000000
  0.000000  0.000000  0.040393      2.000000
  0.015959  0.009214  0.040393     12.000000
  0.031919  0.018428  0.040393     12.000000
  0.015960  0.027642  0.040393     12.000000
  0.031919  0.036856  0.040393     12.000000
  0.000000  0.000000  0.060590      1.000000
  0.015959  0.009214  0.060590      6.000000
  0.031919  0.018428  0.060590      6.000000
  0.015960  0.027642  0.060590      6.000000
  0.031919  0.036856  0.060590      6.000000
 
 
 Subroutine IBZKPT_HF returns following result:
 ==============================================
 
 Found    150 k-points in 1st BZ
 the following    150 k-points will be used (e.g. in the exchange kernel)
 Following reciprocal coordinates:   # in IRBZ
  0.000000  0.000000  0.000000    0.00666667   1 t-inv F
  0.200000  0.000000  0.000000    0.00666667   2 t-inv F
  0.400000  0.000000  0.000000    0.00666667   3 t-inv F
  0.200000  0.200000  0.000000    0.00666667   4 t-inv F
  0.400000  0.200000  0.000000    0.00666667   5 t-inv F
  0.000000  0.000000  0.166667    0.00666667   6 t-inv F
  0.200000  0.000000  0.166667    0.00666667   7 t-inv F
  0.400000  0.000000  0.166667    0.00666667   8 t-inv F
  0.200000  0.200000  0.166667    0.00666667   9 t-inv F
  0.400000  0.200000  0.166667    0.00666667  10 t-inv F
  0.000000  0.000000  0.333333    0.00666667  11 t-inv F
  0.200000  0.000000  0.333333    0.00666667  12 t-inv F
  0.400000  0.000000  0.333333    0.00666667  13 t-inv F
  0.200000  0.200000  0.333333    0.00666667  14 t-inv F
  0.400000  0.200000  0.333333    0.00666667  15 t-inv F
  0.000000  0.000000  0.500000    0.00666667  16 t-inv F
  0.200000  0.000000  0.500000    0.00666667  17 t-inv F
  0.400000  0.000000  0.500000    0.00666667  18 t-inv F
  0.200000  0.200000  0.500000    0.00666667  19 t-inv F
  0.400000  0.200000  0.500000    0.00666667  20 t-inv F
 -0.200000  0.200000  0.000000    0.00666667   2 t-inv F
  0.000000 -0.200000  0.000000    0.00666667   2 t-inv F
 -0.000000  0.200000  0.000000    0.00666667   2 t-inv F spinflp
 -0.200000 -0.000000  0.000000    0.00666667   2 t-inv F spinflp
  0.200000 -0.200000  0.000000    0.00666667   2 t-inv F spinflp
 -0.400000  0.400000  0.000000    0.00666667   3 t-inv F
  0.000000 -0.400000  0.000000    0.00666667   3 t-inv F
 -0.000000  0.400000  0.000000    0.00666667   3 t-inv F spinflp
 -0.400000 -0.000000  0.000000    0.00666667   3 t-inv F spinflp
  0.400000 -0.400000  0.000000    0.00666667   3 t-inv F spinflp
 -0.400000  0.200000  0.000000    0.00666667   4 t-inv F
  0.200000 -0.400000  0.000000    0.00666667   4 t-inv F
 -0.200000  0.400000  0.000000    0.00666667   4 t-inv F spinflp
 -0.200000 -0.200000  0.000000    0.00666667   4 t-inv F spinflp
  0.400000 -0.200000  0.000000    0.00666667   4 t-inv F spinflp
 -0.600000  0.400000  0.000000    0.00666667   5 t-inv F
  0.200000 -0.600000  0.000000    0.00666667   5 t-inv F
 -0.200000  0.600000  0.000000    0.00666667   5 t-inv F spinflp
 -0.400000 -0.200000  0.000000    0.00666667   5 t-inv F spinflp
  0.600000 -0.400000  0.000000    0.00666667   5 t-inv F spinflp
 -0.200000  0.200000  0.166667    0.00666667   7 t-inv F
  0.000000 -0.200000  0.166667    0.00666667   7 t-inv F
 -0.000000  0.200000  0.166667    0.00666667   7 t-inv F spinflp
 -0.200000 -0.000000  0.166667    0.00666667   7 t-inv F spinflp
  0.200000 -0.200000  0.166667    0.00666667   7 t-inv F spinflp
 -0.400000  0.400000  0.166667    0.00666667   8 t-inv F
  0.000000 -0.400000  0.166667    0.00666667   8 t-inv F
 -0.000000  0.400000  0.166667    0.00666667   8 t-inv F spinflp
 -0.400000 -0.000000  0.166667    0.00666667   8 t-inv F spinflp
  0.400000 -0.400000  0.166667    0.00666667   8 t-inv F spinflp
 -0.400000  0.200000  0.166667    0.00666667   9 t-inv F
  0.200000 -0.400000  0.166667    0.00666667   9 t-inv F
 -0.200000  0.400000  0.166667    0.00666667   9 t-inv F spinflp
 -0.200000 -0.200000  0.166667    0.00666667   9 t-inv F spinflp
  0.400000 -0.200000  0.166667    0.00666667   9 t-inv F spinflp
 -0.600000  0.400000  0.166667    0.00666667  10 t-inv F
  0.200000 -0.600000  0.166667    0.00666667  10 t-inv F
 -0.200000  0.600000  0.166667    0.00666667  10 t-inv F spinflp
 -0.400000 -0.200000  0.166667    0.00666667  10 t-inv F spinflp
  0.600000 -0.400000  0.166667    0.00666667  10 t-inv F spinflp
 -0.200000  0.200000  0.333333    0.00666667  12 t-inv F
  0.000000 -0.200000  0.333333    0.00666667  12 t-inv F
 -0.000000  0.200000  0.333333    0.00666667  12 t-inv F spinflp
 -0.200000 -0.000000  0.333333    0.00666667  12 t-inv F spinflp
  0.200000 -0.200000  0.333333    0.00666667  12 t-inv F spinflp
 -0.400000  0.400000  0.333333    0.00666667  13 t-inv F
  0.000000 -0.400000  0.333333    0.00666667  13 t-inv F
 -0.000000  0.400000  0.333333    0.00666667  13 t-inv F spinflp
 -0.400000 -0.000000  0.333333    0.00666667  13 t-inv F spinflp
  0.400000 -0.400000  0.333333    0.00666667  13 t-inv F spinflp
 -0.400000  0.200000  0.333333    0.00666667  14 t-inv F
  0.200000 -0.400000  0.333333    0.00666667  14 t-inv F
 -0.200000  0.400000  0.333333    0.00666667  14 t-inv F spinflp
 -0.200000 -0.200000  0.333333    0.00666667  14 t-inv F spinflp
  0.400000 -0.200000  0.333333    0.00666667  14 t-inv F spinflp
 -0.600000  0.400000  0.333333    0.00666667  15 t-inv F
  0.200000 -0.600000  0.333333    0.00666667  15 t-inv F
 -0.200000  0.600000  0.333333    0.00666667  15 t-inv F spinflp
 -0.400000 -0.200000  0.333333    0.00666667  15 t-inv F spinflp
  0.600000 -0.400000  0.333333    0.00666667  15 t-inv F spinflp
 -0.200000  0.200000  0.500000    0.00666667  17 t-inv F
  0.000000 -0.200000  0.500000    0.00666667  17 t-inv F
 -0.000000  0.200000  0.500000    0.00666667  17 t-inv F spinflp
 -0.200000 -0.000000  0.500000    0.00666667  17 t-inv F spinflp
  0.200000 -0.200000  0.500000    0.00666667  17 t-inv F spinflp
 -0.400000  0.400000  0.500000    0.00666667  18 t-inv F
  0.000000 -0.400000  0.500000    0.00666667  18 t-inv F
 -0.000000  0.400000  0.500000    0.00666667  18 t-inv F spinflp
 -0.400000 -0.000000  0.500000    0.00666667  18 t-inv F spinflp
  0.400000 -0.400000  0.500000    0.00666667  18 t-inv F spinflp
 -0.400000  0.200000  0.500000    0.00666667  19 t-inv F
  0.200000 -0.400000  0.500000    0.00666667  19 t-inv F
 -0.200000  0.400000  0.500000    0.00666667  19 t-inv F spinflp
 -0.200000 -0.200000  0.500000    0.00666667  19 t-inv F spinflp
  0.400000 -0.200000  0.500000    0.00666667  19 t-inv F spinflp
 -0.600000  0.400000  0.500000    0.00666667  20 t-inv F
  0.200000 -0.600000  0.500000    0.00666667  20 t-inv F
 -0.200000  0.600000  0.500000    0.00666667  20 t-inv F spinflp
 -0.400000 -0.200000  0.500000    0.00666667  20 t-inv F spinflp
  0.600000 -0.400000  0.500000    0.00666667  20 t-inv F spinflp
 -0.000000 -0.000000 -0.166667    0.00666667   6 t-inv T
 -0.200000 -0.000000 -0.166667    0.00666667   7 t-inv T
  0.200000 -0.200000 -0.166667    0.00666667   7 t-inv T
 -0.000000  0.200000 -0.166667    0.00666667   7 t-inv T
  0.000000 -0.200000 -0.166667    0.00666667   7 t-inv T spinflp
  0.200000  0.000000 -0.166667    0.00666667   7 t-inv T spinflp
 -0.200000  0.200000 -0.166667    0.00666667   7 t-inv T spinflp
 -0.400000 -0.000000 -0.166667    0.00666667   8 t-inv T
  0.400000 -0.400000 -0.166667    0.00666667   8 t-inv T
 -0.000000  0.400000 -0.166667    0.00666667   8 t-inv T
  0.000000 -0.400000 -0.166667    0.00666667   8 t-inv T spinflp
  0.400000  0.000000 -0.166667    0.00666667   8 t-inv T spinflp
 -0.400000  0.400000 -0.166667    0.00666667   8 t-inv T spinflp
 -0.200000 -0.200000 -0.166667    0.00666667   9 t-inv T
  0.400000 -0.200000 -0.166667    0.00666667   9 t-inv T
 -0.200000  0.400000 -0.166667    0.00666667   9 t-inv T
  0.200000 -0.400000 -0.166667    0.00666667   9 t-inv T spinflp
  0.200000  0.200000 -0.166667    0.00666667   9 t-inv T spinflp
 -0.400000  0.200000 -0.166667    0.00666667   9 t-inv T spinflp
 -0.400000 -0.200000 -0.166667    0.00666667  10 t-inv T
  0.600000 -0.400000 -0.166667    0.00666667  10 t-inv T
 -0.200000  0.600000 -0.166667    0.00666667  10 t-inv T
  0.200000 -0.600000 -0.166667    0.00666667  10 t-inv T spinflp
  0.400000  0.200000 -0.166667    0.00666667  10 t-inv T spinflp
 -0.600000  0.400000 -0.166667    0.00666667  10 t-inv T spinflp
 -0.000000 -0.000000 -0.333333    0.00666667  11 t-inv T
 -0.200000 -0.000000 -0.333333    0.00666667  12 t-inv T
  0.200000 -0.200000 -0.333333    0.00666667  12 t-inv T
 -0.000000  0.200000 -0.333333    0.00666667  12 t-inv T
  0.000000 -0.200000 -0.333333    0.00666667  12 t-inv T spinflp
  0.200000  0.000000 -0.333333    0.00666667  12 t-inv T spinflp
 -0.200000  0.200000 -0.333333    0.00666667  12 t-inv T spinflp
 -0.400000 -0.000000 -0.333333    0.00666667  13 t-inv T
  0.400000 -0.400000 -0.333333    0.00666667  13 t-inv T
 -0.000000  0.400000 -0.333333    0.00666667  13 t-inv T
  0.000000 -0.400000 -0.333333    0.00666667  13 t-inv T spinflp
  0.400000  0.000000 -0.333333    0.00666667  13 t-inv T spinflp
 -0.400000  0.400000 -0.333333    0.00666667  13 t-inv T spinflp
 -0.200000 -0.200000 -0.333333    0.00666667  14 t-inv T
  0.400000 -0.200000 -0.333333    0.00666667  14 t-inv T
 -0.200000  0.400000 -0.333333    0.00666667  14 t-inv T
  0.200000 -0.400000 -0.333333    0.00666667  14 t-inv T spinflp
  0.200000  0.200000 -0.333333    0.00666667  14 t-inv T spinflp
 -0.400000  0.200000 -0.333333    0.00666667  14 t-inv T spinflp
 -0.400000 -0.200000 -0.333333    0.00666667  15 t-inv T
  0.600000 -0.400000 -0.333333    0.00666667  15 t-inv T
 -0.200000  0.600000 -0.333333    0.00666667  15 t-inv T
  0.200000 -0.600000 -0.333333    0.00666667  15 t-inv T spinflp
  0.400000  0.200000 -0.333333    0.00666667  15 t-inv T spinflp
 -0.600000  0.400000 -0.333333    0.00666667  15 t-inv T spinflp


--------------------------------------------------------------------------------------------------------




 Dimension of arrays:
   k-points           NKPTS =     20   k-points in BZ     NKDIM =     20   number of bands    NBANDS=    300
   number of dos      NEDOS =    301   number of ions     NIONS =    108
   non local maximal  LDIM  =      6   non local SUM 2l+1 LMDIM =     18
   total plane-waves  NPLWV = ******
   max r-space proj   IRMAX =      1   max aug-charges    IRDMAX= 266332
   dimension x,y,z NGX =   120 NGY =  120 NGZ =   80
   dimension x,y,z NGXF=   240 NGYF=  240 NGZF=  160
   support grid    NGXF=   480 NGYF=  480 NGZF=  320
   ions per type =               6  36  18  42   6
   NGX,Y,Z   is equivalent  to a cutoff of  15.92, 15.92, 16.12 a.u.
   NGXF,Y,Z  is equivalent  to a cutoff of  31.84, 31.84, 32.23 a.u.

 SYSTEM =  unknown system                          
 POSCAR =  crystal                                 

 Startparameter for this run:
   NWRITE =      2    write-flag & timer
   PREC   = accura    normal or accurate (medium, high low for compatibility)
   ISTART =      1    job   : 0-new  1-cont  2-samecut
   ICHARG =     11    charge: 1-file 2-atom 10-const
   ISPIN  =      2    spin polarized calculation?
   LNONCOLLINEAR =      F non collinear calculations
   LSORBIT =      F    spin-orbit coupling
   INIWAV =      1    electr: 0-lowe 1-rand  2-diag
   LASPH  =      T    aspherical Exc in radial PAW
 Electronic Relaxation 1
   ENCUT  =  850.0 eV  62.47 Ry    7.90 a.u.  29.79 29.79 19.62*2*pi/ulx,y,z
   ENINI  =  850.0     initial cutoff
   ENAUG  = 1500.0 eV  augmentation charge cutoff
   NELM   =     50;   NELMIN=  6; NELMDL= -8     # of ELM steps 
   EDIFF  = 0.1E-07   stopping-criterion for ELM
   LREAL  =      F    real-space projection
   NLSPLINE    = F    spline interpolate recip. space projectors
   LCOMPAT=      F    compatible to vasp.4.4
   GGA_COMPAT  = F    GGA compatible to vasp.4.4-vasp.4.6
   LMAXPAW     = -100 max onsite density
   LMAXMIX     =    4 max onsite mixed and CHGCAR
   VOSKOWN=      0    Vosko Wilk Nusair interpolation
   ROPT   =    0.00000   0.00000   0.00000   0.00000
   ROPT   =    0.00000
 Ionic relaxation
   EDIFFG = -.5E-02   stopping-criterion for IOM
   NSW    =      0    number of steps for IOM
   NBLOCK =      1;   KBLOCK =      1    inner block; outer block 
   IBRION =     -1    ionic relax: 0-MD 1-quasi-New 2-CG
   NFREE  =      1    steps in history (QN), initial steepest desc. (CG)
   ISIF   =      3    stress and relaxation
   IWAVPR =     10    prediction:  0-non 1-charg 2-wave 3-comb
   ISYM   =      2    0-nonsym 1-usesym 2-fastsym
   LCORR  =      T    Harris-Foulkes like correction to forces

   POTIM  = 0.1000    time-step for ionic-motion
   TEIN   =    0.0    initial temperature
   TEBEG  =    0.0;   TEEND  =   0.0 temperature during run
   SMASS  =  -3.00    Nose mass-parameter (am)
   estimated Nose-frequenzy (Omega)   =  0.10E-29 period in steps = 0.63E+47 mass=  -0.359E-26a.u.
   SCALEE = 1.0000    scale energy and forces
   NPACO  =    256;   APACO  = 10.0  distance and # of slots for P.C.
   PSTRESS=    0.0 pullay stress

  Mass of Ions in am
   POMASS =  58.69 16.00 12.01  1.00 14.00
  Ionic Valenz
   ZVAL   =  10.00  6.00  4.00  1.00  5.00
  Atomic Wigner-Seitz radii
   RWIGS  =  -1.00 -1.00 -1.00 -1.00 -1.00
  virtual crystal weights 
   VCA    =   1.00  1.00  1.00  1.00  1.00
   NELECT =     420.0000    total number of electrons
   NUPDOWN=      -1.0000    fix difference up-down

 DOS related values:
   EMIN   =  10.00;   EMAX   =-10.00  energy-range for DOS
   EFERMI =   0.00
   ISMEAR =     0;   SIGMA  =   0.05  broadening in eV -4-tet -1-fermi 0-gaus

 Electronic relaxation 2 (details)
   IALGO  =     38    algorithm
   LDIAG  =      T    sub-space diagonalisation (order eigenvalues)
   LSUBROT=      F    optimize rotation matrix (better conditioning)
   TURBO    =      0    0=normal 1=particle mesh
   IRESTART =      0    0=no restart 2=restart with 2 vectors
   NREBOOT  =      0    no. of reboots
   NMIN     =      0    reboot dimension
   EREF     =   0.00    reference energy to select bands
   IMIX   =      4    mixing-type and parameters
     AMIX     =   0.10;   BMIX     =  1.00
     AMIX_MAG =   0.40;   BMIX_MAG =  1.00
     AMIN     =   0.10
     WC   =   100.;   INIMIX=   1;  MIXPRE=   1;  MAXMIX= -45

 Intra band minimization:
   WEIMIN = 0.0000     energy-eigenvalue tresh-hold
   EBREAK =  0.83E-11  absolut break condition
   DEPER  =   0.30     relativ break condition  

   TIME   =   0.40     timestep for ELM

  volume/ion in A,a.u.               =      10.39        70.13
  Fermi-wavevector in a.u.,A,eV,Ry     =   1.179719  2.229346 18.935745  1.391738
  Thomas-Fermi vector in A             =   2.316025
 
 Write flags
   LWAVE        =      F    write WAVECAR
   LDOWNSAMPLE  =      F    k-point downsampling of WAVECAR
   LCHARG       =      F    write CHGCAR
   LVTOT        =      F    write LOCPOT, total local potential
   LVHAR        =      F    write LOCPOT, Hartree potential only
   LELF         =      F    write electronic localiz. function (ELF)
   LORBIT       =     11    0 simple, 1 ext, 2 COOP (PROOUT), +10 PAW based schemes


 Dipole corrections
   LMONO  =      F    monopole corrections only (constant potential shift)
   LDIPOL =      F    correct potential (dipole corrections)
   IDIPOL =      0    1-x, 2-y, 3-z, 4-all directions 
   EPSILON=  1.0000000 bulk dielectric constant

 Exchange correlation treatment:
   GGA     =    --    GGA type
   LEXCH   =     8    internal setting for exchange type
   LIBXC   =     F    Libxc                    
   VOSKOWN =     0    Vosko Wilk Nusair interpolation
   LHFCALC =     F    Hartree Fock is set to
   LHFONE  =     F    Hartree Fock one center treatment
   AEXX    =    0.0000 exact exchange contribution

 Linear response parameters
   LEPSILON=     F    determine dielectric tensor
   LRPA    =     F    only Hartree local field effects (RPA)
   LNABLA  =     F    use nabla operator in PAW spheres
   LVEL    =     F    velocity operator in full k-point grid
   CSHIFT  =0.1000    complex shift for real part using Kramers Kronig
   OMEGAMAX=  -1.0    maximum frequency
   DEG_THRESHOLD= 0.2000000E-02 threshold for treating states as degnerate
   RTIME   =   -0.100 relaxation time in fs
  (WPLASMAI=    0.000 imaginary part of plasma frequency in eV, 0.658/RTIME)
   DFIELD  = 0.0000000 0.0000000 0.0000000 field for delta impulse in time
 
  Optional k-point grid parameters
   LKPOINTS_OPT  =     F    use optional k-point grid
   KPOINTS_OPT_MODE=     1    mode for optional k-point grid
 
 Orbital magnetization related:
   ORBITALMAG=     F  switch on orbital magnetization
   LCHIMAG   =     F  perturbation theory with respect to B field
   DQ        =  0.001000  dq finite difference perturbation B field
   LLRAUG    =     F  two centre corrections for induced B field

 PEAD related settings:
   LPEAD      =     T    switch on PEAD
   IPEAD      =     4    finite difference order for dpsi/dk
   LCALCPOL   =     T    calculate macroscopic polarization
   LCALCEPS   =     F    calculate dielectric tensor
   EFIELD_PEAD=    0.0000    0.0000    0.0000
   SKIP_EDOTP =     F
   LRPA       =     F
   SKIP_SCF   =     F


--------------------------------------------------------------------------------------------------------


 Static calculation
 charge density and potential remain constant during run
 spin polarized calculation
 Variant of blocked Davidson
 Davidson routine will perform the subspace rotation
 perform sub-space diagonalisation
    after iterative eigenvector-optimisation
 no mixing
 using additional bands            90
 reciprocal scheme for non local part
 use partial core corrections
 calculate Harris-corrections to forces 
   (improved forces if not selfconsistent)
 use gradient corrections 
 WARNING: stress and forces are not correct
  (second derivative of E(xc) not defined)
 use of overlap-Matrix (Vanderbilt PP)
 Gauss-broadening in eV      SIGMA  =   0.05


--------------------------------------------------------------------------------------------------------


  energy-cutoff  :      850.00
  volume of cell :     1122.37
      direct lattice vectors                 reciprocal lattice vectors
    12.531950183 -0.000167042  0.000000000     0.079796654  0.046069202  0.000000000
    -6.265830429 10.853070738 -0.000000000     0.000001228  0.092140531  0.000000000
    -0.000000000 -0.000000000  8.252197545     0.000000000  0.000000000  0.121179843

  length of vectors
    12.531950184 12.531950184  8.252197545     0.092140531  0.092140531  0.121179843


 
 old parameters found on file WAVECAR:
  energy-cutoff  :      850.00
  volume of cell :     1122.37
      direct lattice vectors                 reciprocal lattice vectors
    12.531950183 -0.000167042  0.000000000     0.079796654  0.046069202  0.000000000
    -6.265830429 10.853070738 -0.000000000     0.000001228  0.092140531  0.000000000
    -0.000000000 -0.000000000  8.252197545     0.000000000  0.000000000  0.121179843

  length of vectors

 
 k-points in units of 2pi/SCALE and weight: K-Spacing Value to Generate K-Mesh: 0.04
   0.00000000  0.00000000  0.00000000       0.007
   0.01595933  0.00921384  0.00000000       0.040
   0.03191866  0.01842768  0.00000000       0.040
   0.01595958  0.02764195  0.00000000       0.040
   0.03191891  0.03685579  0.00000000       0.040
   0.00000000  0.00000000  0.02019664       0.013
   0.01595933  0.00921384  0.02019664       0.080
   0.03191866  0.01842768  0.02019664       0.080
   0.01595958  0.02764195  0.02019664       0.080
   0.03191891  0.03685579  0.02019664       0.080
   0.00000000  0.00000000  0.04039328       0.013
   0.01595933  0.00921384  0.04039328       0.080
   0.03191866  0.01842768  0.04039328       0.080
   0.01595958  0.02764195  0.04039328       0.080
   0.03191891  0.03685579  0.04039328       0.080
   0.00000000  0.00000000  0.06058992       0.007
   0.01595933  0.00921384  0.06058992       0.040
   0.03191866  0.01842768  0.06058992       0.040
   0.01595958  0.02764195  0.06058992       0.040
   0.03191891  0.03685579  0.06058992       0.040
 
 k-points in reciprocal lattice and weights: K-Spacing Value to Generate K-Mesh: 0.04
   0.00000000  0.00000000  0.00000000       0.007
   0.20000000  0.00000000  0.00000000       0.040
   0.40000000  0.00000000  0.00000000       0.040
   0.20000000  0.20000000  0.00000000       0.040
   0.40000000  0.20000000  0.00000000       0.040
   0.00000000  0.00000000  0.16666667       0.013
   0.20000000  0.00000000  0.16666667       0.080
   0.40000000  0.00000000  0.16666667       0.080
   0.20000000  0.20000000  0.16666667       0.080
   0.40000000  0.20000000  0.16666667       0.080
   0.00000000  0.00000000  0.33333333       0.013
   0.20000000  0.00000000  0.33333333       0.080
   0.40000000  0.00000000  0.33333333       0.080
   0.20000000  0.20000000  0.33333333       0.080
   0.40000000  0.20000000  0.33333333       0.080
   0.00000000  0.00000000  0.50000000       0.007
   0.20000000  0.00000000  0.50000000       0.040
   0.40000000  0.00000000  0.50000000       0.040
   0.20000000  0.20000000  0.50000000       0.040
   0.40000000  0.20000000  0.50000000       0.040
 
 position of ions in fractional coordinates (direct lattice) 
   0.33487075  0.33178996  0.58659697
   0.66821004  0.00308078  0.58659697
   0.99691922  0.66512925  0.58659697
   0.66512925  0.66821004  0.08659697
   0.33178996  0.99691922  0.08659697
   0.00308078  0.33487075  0.08659697
   0.42454667  0.26294219  0.44371810
   0.73705781  0.16160448  0.44371810
   0.83839552  0.57545333  0.44371810
   0.57545333  0.73705781  0.94371810
   0.26294219  0.83839552  0.94371810
   0.16160448  0.42454667  0.94371810
   0.42672727  0.15326806  0.23138801
   0.84673194  0.27345920  0.23138801
   0.72654080  0.57327273  0.23138801
   0.57327273  0.84673194  0.73138801
   0.15326806  0.72654080  0.73138801
   0.27345920  0.42672727  0.73138801
   0.40103618  0.49073844  0.44327005
   0.50926156  0.91029774  0.44327005
   0.08970226  0.59896382  0.44327005
   0.59896382  0.50926156  0.94327005
   0.49073844  0.08970226  0.94327005
   0.91029774  0.40103618  0.94327005
   0.50641064  0.60392097  0.22935165
   0.39607903  0.90248967  0.22935165
   0.09751033  0.49358936  0.22935165
   0.49358936  0.39607903  0.72935165
   0.60392097  0.09751033  0.72935165
   0.90248967  0.50641064  0.72935165
   0.17598078  0.23788430  0.44520922
   0.76211570  0.93809648  0.44520922
   0.06190352  0.82401922  0.44520922
   0.82401922  0.76211570  0.94520922
   0.23788430  0.06190352  0.94520922
   0.93809648  0.17598078  0.94520922
   0.06992942  0.24305711  0.23042658
   0.75694289  0.82687231  0.23042658
   0.17312769  0.93007058  0.23042658
   0.93007058  0.75694289  0.73042658
   0.24305711  0.17312769  0.73042658
   0.82687231  0.06992942  0.73042658
   0.37009125  0.18299379  0.33238871
   0.81700621  0.18709746  0.33238871
   0.81290254  0.62990875  0.33238871
   0.62990875  0.81700621  0.83238871
   0.18299379  0.81290254  0.83238871
   0.18709746  0.37009125  0.83238871
   0.47486032  0.51385486  0.32453930
   0.48614514  0.96100546  0.32453930
   0.03899454  0.52513968  0.32453930
   0.52513968  0.48614514  0.82453930
   0.51385486  0.03899454  0.82453930
   0.96100546  0.47486032  0.82453930
   0.14520390  0.29544079  0.34715597
   0.70455921  0.84976311  0.34715597
   0.15023689  0.85479610  0.34715597
   0.85479610  0.70455921  0.84715597
   0.29544079  0.15023689  0.84715597
   0.84976311  0.14520390  0.84715597
   0.26899237  0.13887952  0.32550061
   0.86112048  0.13011285  0.32550061
   0.86988715  0.73100763  0.32550061
   0.73100763  0.86112048  0.82550061
   0.13887952  0.86988715  0.82550061
   0.13011285  0.26899237  0.82550061
   0.51292815  0.45230280  0.30591709
   0.54769720  0.06062534  0.30591709
   0.93937466  0.48707185  0.30591709
   0.48707185  0.54769720  0.80591709
   0.45230280  0.93937466  0.80591709
   0.06062534  0.51292815  0.80591709
   0.18456709  0.39564054  0.36108604
   0.60435946  0.78892655  0.36108604
   0.21107345  0.81543291  0.36108604
   0.81543291  0.60435946  0.86108604
   0.39564054  0.21107345  0.86108604
   0.78892655  0.18456709  0.86108604
   0.57736778  0.30746484  0.49907961
   0.69253516  0.26990294  0.49907961
   0.73009706  0.42263222  0.49907961
   0.42263222  0.69253516  0.99907961
   0.30746484  0.73009706  0.99907961
   0.26990294  0.57736778  0.99907961
   0.66670000  0.33330000  0.66244639
   0.33330000  0.66670000  0.16244639
   0.35848807  0.60258057  0.49882744
   0.39741943  0.75590751  0.49882744
   0.24409249  0.64151193  0.49882744
   0.64151193  0.39741943  0.99882744
   0.60258057  0.24409249  0.99882744
   0.75590751  0.35848807  0.99882744
   0.33330000  0.66670000  0.66220785
   0.66670000  0.33330000  0.16220785
   0.02635441  0.08949050  0.17404375
   0.91050950  0.93686391  0.17404375
   0.06313609  0.97364559  0.17404375
   0.97364559  0.91050950  0.67404375
   0.08949050  0.06313609  0.67404375
   0.93686391  0.02635441  0.67404375
   0.00000000  0.00000000  0.01071541
   0.00000000  0.00000000  0.51071541
   0.66670000  0.33330000  0.53865333
   0.33330000  0.66670000  0.03865333
   0.33330000  0.66670000  0.53833700
   0.66670000  0.33330000  0.03833700
   0.00000000  0.00000000  0.13454272
   0.00000000  0.00000000  0.63454272
 
 position of ions in cartesian coordinates  (Angst):
   2.11764387  3.60088400  4.84071407
   8.35467123  0.03332435  4.84071407
   8.32575484  7.21852831  4.84071407
   4.14847588  7.25201970  0.71461530
  -2.08855148 10.81957935  0.71461530
  -2.05963508  3.63437539  0.71461530
   3.67284656  2.85365931  3.66164943
   8.22418544  1.75378172  3.66164943
   6.90103793  6.24529561  3.66164943
   2.59327320  7.99924438  7.78774820
  -1.95806569  9.09912197  7.78774820
  -0.63491818  4.60760808  7.78774820
   4.38737316  1.66335783  1.90945957
   8.89775347  2.96773065  1.90945957
   5.51294331  6.22164817  1.90945957
   1.87874660  9.18954587  6.03555835
  -2.63163371  7.88517304  6.03555835
   0.75317644  4.63125553  6.03555835
   1.95088155  5.32595203  3.65795199
   0.67826922  9.87944066  3.65795199
  -2.62886144  6.50058174  3.65795199
   4.31523820  5.52695166  7.78405077
   5.58785054  0.97346303  7.78405077
   8.89498120  4.35232196  7.78405077
   2.56224651  6.55431243  1.89265510
  -0.69120457  9.79471805  1.89265510
  -1.87075261  5.35694395  1.89265510
   3.70387324  4.29859126  6.01875387
   6.95732433  1.05818565  6.01875387
   8.13687237  5.49595974  6.01875387
   0.71483965  2.58174573  3.67395445
   3.67284254 10.18110013  3.67395445
  -4.38739287  8.94312858  3.67395445
   5.55128010  8.27115797  7.80005322
   2.59327721  0.67180356  7.80005322
  10.65351262  1.90977512  7.80005322
  -0.64660263  2.63790430  1.90152567
   4.30492893  8.97397724  1.90152567
  -3.65803698 10.09409289  1.90152567
   6.91272238  8.21499939  6.02762444
   1.96119082  1.87892645  6.02762444
   9.92415673  0.75881081  6.02762444
   3.49135703  1.98598275  2.74293727
   9.06636015  2.03044546  2.74293727
   6.24035276  6.83630844  2.74293727
   2.77476273  8.86692094  6.86903604
  -2.80024040  8.82245823  6.86903604
   0.02576700  4.01659526  6.86903604
   2.73119849  5.57682381  2.67816241
   0.07084942 10.42977907  2.67816241
  -2.80175858  5.69937155  2.67816241
   3.53492126  5.27607989  6.80426118
   6.19527034  0.42312463  6.80426118
   9.06787834  5.15353214  6.80426118
  -0.03149386  3.20641559  2.86479963
   3.50502933  9.22242142  2.86479963
  -3.47324614  9.27713743  2.86479963
   6.29761361  7.64648811  6.99089840
   2.76109043  1.63048228  6.99089840
   9.73936590  1.57576627  6.99089840
   2.50080347  1.50722432  2.68609537
   9.97625389  1.41198013  2.68609537
   6.32101257  7.93353220  2.68609537
   3.76531628  9.34567937  6.81219415
  -3.71013414  9.44092356  6.81219415
  -0.05489282  2.91937150  6.81219415
   3.59393732  4.90878863  2.52448826
   6.48384587  0.65787966  2.52448826
   8.72028675  5.28606837  2.52448826
   2.67218244  5.94411506  6.65058703
  -0.21772611 10.19502404  6.65058703
  -2.45416700  5.56683533  6.65058703
  -0.16603094  4.29388396  2.97975336
   2.63052263  8.56217471  2.97975336
  -2.46420237  8.84991577  2.97975336
   6.43215069  6.55901974  7.10585213
   3.63559712  2.29072899  7.10585213
   8.73032212  2.00298793  7.10585213
   5.30902168  3.33684121  4.11850354
   6.98765008  2.92916000  4.11850354
   6.50139817  4.58673544  4.11850354
   0.95709807  7.51606248  8.24460231
  -0.72153033  7.92374370  8.24460231
  -0.23527842  6.26616825  8.24460231
   6.26664990  3.61721711  5.46663845
  -0.00053015  7.23568659  1.34053968
   0.71688702  6.53978966  4.11642256
   0.24405226  8.20385124  4.11642256
  -0.96064996  6.96233354  4.11642256
   5.54923273  4.31311404  8.24252134
   6.02206749  2.64905246  8.24252134
   7.22676972  3.89057016  8.24252134
  -0.00053015  7.23568659  5.46467003
   6.26664990  3.61721711  1.33857126
  -0.23046013  0.97124238  1.43624344
   5.54022925 10.16769818  1.43624344
  -5.30947979 10.56703387  1.43624344
   6.49657988  9.88166132  5.56234221
   0.72589051  0.68520551  5.56234221
  11.57559955  0.28586982  5.56234221
   0.00000000  0.00000000  0.08842568
   0.00000000  0.00000000  4.21452445
   6.26664990  3.61721711  4.44507366
  -0.00053015  7.23568659  0.31897489
  -0.00053015  7.23568659  4.44246323
   6.26664990  3.61721711  0.31636446
   0.00000000  0.00000000  1.11027308
   0.00000000  0.00000000  5.23637185
 


--------------------------------------------------------------------------------------------------------


 k-point   1 :   0.0000 0.0000 0.0000  plane waves:   63189
 k-point   2 :   0.2000 0.0000 0.0000  plane waves:   63153
 k-point   3 :   0.4000 0.0000 0.0000  plane waves:   63184
 k-point   4 :   0.2000 0.2000 0.0000  plane waves:   63156
 k-point   5 :   0.4000 0.2000 0.0000  plane waves:   63196
 k-point   6 :   0.0000 0.0000 0.1667  plane waves:   63177
 k-point   7 :   0.2000 0.0000 0.1667  plane waves:   63207
 k-point   8 :   0.4000 0.0000 0.1667  plane waves:   63167
 k-point   9 :   0.2000 0.2000 0.1667  plane waves:   63147
 k-point  10 :   0.4000 0.2000 0.1667  plane waves:   63161
 k-point  11 :   0.0000 0.0000 0.3333  plane waves:   63093
 k-point  12 :   0.2000 0.0000 0.3333  plane waves:   63105
 k-point  13 :   0.4000 0.0000 0.3333  plane waves:   63134
 k-point  14 :   0.2000 0.2000 0.3333  plane waves:   63152
 k-point  15 :   0.4000 0.2000 0.3333  plane waves:   63170
 k-point  16 :   0.0000 0.0000 0.5000  plane waves:   63148
 k-point  17 :   0.2000 0.0000 0.5000  plane waves:   63142
 k-point  18 :   0.4000 0.0000 0.5000  plane waves:   63110
 k-point  19 :   0.2000 0.2000 0.5000  plane waves:   63128
 k-point  20 :   0.4000 0.2000 0.5000  plane waves:   63156

 maximum and minimum number of plane-waves per node :     63207    63093

 maximum number of plane-waves:     63207
 maximum index in each direction: 
   IXMAX=   29   IYMAX=   29   IZMAX=   19
   IXMIN=  -30   IYMIN=  -29   IZMIN=  -20


 serial   3D FFT for wavefunctions
 parallel 3D FFT for charge:
    minimum data exchange during FFTs selected (reduces bandwidth)


 total amount of memory used by VASP MPI-rank0  1394357. kBytes
=======================================================================

   base      :      30000. kBytes
   nonl-proj :    1019934. kBytes
   fftplans  :      27244. kBytes
   grid      :     108764. kBytes
   one-center:       3359. kBytes
   wavefun   :     205056. kBytes
 
     INWAV:  cpu time     57.3497: real time     57.3468
 initial charge density was supplied:
 number of electron     420.0000003 magnetization      -0.0000000
 keeping initial charge density in first step


--------------------------------------------------------------------------------------------------------


 Maximum index for augmentation-charges          4472 (set IRDMAX)


[...]
     -1.95807      9.09912      7.78775         0.000639      0.001447      0.001118
     -0.63492      4.60761      7.78775        -0.001572     -0.000170      0.001118
      4.38737      1.66336      1.90946         0.000878     -0.000710      0.001010
      8.89775      2.96773      1.90946         0.000176      0.001115      0.001010
      5.51294      6.22165      1.90946        -0.001054     -0.000405      0.001010
      1.87875      9.18955      6.03556        -0.000878      0.000710      0.001010
     -2.63163      7.88517      6.03556        -0.000176     -0.001115      0.001010
      0.75318      4.63126      6.03556         0.001054      0.000405      0.001010
      1.95088      5.32595      3.65795         0.000051     -0.000800      0.000621
      0.67827      9.87944      3.65795         0.000667      0.000445      0.000621
     -2.62886      6.50058      3.65795        -0.000719      0.000356      0.000621
      4.31524      5.52695      7.78405        -0.000051      0.000800      0.000621
      5.58785      0.97346      7.78405        -0.000667     -0.000445      0.000621
      8.89498      4.35232      7.78405         0.000719     -0.000356      0.000621
      2.56225      6.55431      1.89266        -0.000299      0.000514      0.001432
     -0.69120      9.79472      1.89266        -0.000296     -0.000516      0.001432
     -1.87075      5.35694      1.89266         0.000595      0.000002      0.001432
      3.70387      4.29859      6.01875         0.000299     -0.000514      0.001432
      6.95732      1.05819      6.01875         0.000296      0.000516      0.001432
      8.13687      5.49596      6.01875        -0.000595     -0.000002      0.001432
      0.71484      2.58175      3.67395         0.002522     -0.001022     -0.000378
      3.67284     10.18110      3.67395        -0.000376      0.002695     -0.000378
     -4.38739      8.94313      3.67395        -0.002146     -0.001673     -0.000378
      5.55128      8.27116      7.80005        -0.002522      0.001022     -0.000378
      2.59328      0.67180      7.80005         0.000376     -0.002695     -0.000378
     10.65351      1.90978      7.80005         0.002146      0.001673     -0.000378
     -0.64660      2.63790      1.90153        -0.001577     -0.000697     -0.002603
      4.30493      8.97398      1.90153         0.001392     -0.001017     -0.002603
     -3.65804     10.09409      1.90153         0.000185      0.001714     -0.002603
      6.91272      8.21500      6.02762         0.001577      0.000697     -0.002603
      1.96119      1.87893      6.02762        -0.001392      0.001017     -0.002603
      9.92416      0.75881      6.02762        -0.000185     -0.001714     -0.002603
      3.49136      1.98598      2.74294        -0.002652     -0.001618     -0.000336
      9.06636      2.03045      2.74294         0.002727     -0.001488     -0.000336
      6.24035      6.83631      2.74294        -0.000075      0.003106     -0.000336
      2.77476      8.86692      6.86904         0.002652      0.001618     -0.000336
     -2.80024      8.82246      6.86904        -0.002727      0.001488     -0.000336
      0.02577      4.01660      6.86904         0.000075     -0.003106     -0.000336
      2.73120      5.57682      2.67816         0.001918     -0.001906     -0.001138
      0.07085     10.42978      2.67816         0.000692      0.002614     -0.001138
     -2.80176      5.69937      2.67816        -0.002610     -0.000708     -0.001138
      3.53492      5.27608      6.80426        -0.001918      0.001906     -0.001138
      6.19527      0.42312      6.80426        -0.000692     -0.002614     -0.001138
      9.06788      5.15353      6.80426         0.002610      0.000708     -0.001138
     -0.03149      3.20642      2.86480         0.000224      0.002689     -0.000370
      3.50503      9.22242      2.86480        -0.002441     -0.001150     -0.000370
     -3.47325      9.27714      2.86480         0.002217     -0.001539     -0.000370
      6.29761      7.64649      6.99090        -0.000224     -0.002689     -0.000370
      2.76109      1.63048      6.99090         0.002441      0.001150     -0.000370
      9.73937      1.57577      6.99090        -0.002217      0.001539     -0.000370
      2.50080      1.50722      2.68610         0.001440      0.000508     -0.000839
      9.97625      1.41198      2.68610        -0.001160      0.000993     -0.000839
      6.32101      7.93353      2.68610        -0.000280     -0.001502     -0.000839
      3.76532      9.34568      6.81219        -0.001440     -0.000508     -0.000839
     -3.71013      9.44092      6.81219         0.001160     -0.000993     -0.000839
     -0.05489      2.91937      6.81219         0.000280      0.001502     -0.000839
      3.59394      4.90879      2.52449        -0.001423      0.001173     -0.000918
      6.48385      0.65788      2.52449        -0.000304     -0.001818     -0.000918
      8.72029      5.28607      2.52449         0.001727      0.000646     -0.000918
      2.67218      5.94412      6.65059         0.001423     -0.001173     -0.000918
     -0.21773     10.19502      6.65059         0.000304      0.001818     -0.000918
     -2.45417      5.56684      6.65059        -0.001727     -0.000646     -0.000918
     -0.16603      4.29388      2.97975         0.000885      0.000607      0.000111
      2.63052      8.56217      2.97975        -0.000968      0.000463      0.000111
     -2.46420      8.84992      2.97975         0.000083     -0.001070      0.000111
      6.43215      6.55902      7.10585        -0.000885     -0.000607      0.000111
      3.63560      2.29073      7.10585         0.000968     -0.000463      0.000111
      8.73032      2.00299      7.10585        -0.000083      0.001070      0.000111
      5.30902      3.33684      4.11850         0.001101     -0.000904      0.000675
      6.98765      2.92916      4.11850         0.000232      0.001406      0.000675
      6.50140      4.58674      4.11850        -0.001333     -0.000502      0.000675
      0.95710      7.51606      8.24460        -0.001101      0.000904      0.000675
     -0.72153      7.92374      8.24460        -0.000232     -0.001406      0.000675
     -0.23528      6.26617      8.24460         0.001333      0.000502      0.000675
      6.26665      3.61722      5.46664        -0.000000     -0.000000      0.000679
     -0.00053      7.23569      1.34054         0.000000     -0.000000      0.000679
      0.71689      6.53979      4.11642        -0.000252      0.001454      0.001780
      0.24405      8.20385      4.11642        -0.001133     -0.000945      0.001780
     -0.96065      6.96233      4.11642         0.001385     -0.000509      0.001780
      5.54923      4.31311      8.24252         0.000252     -0.001454      0.001780
      6.02207      2.64905      8.24252         0.001133      0.000945      0.001780
      7.22677      3.89057      8.24252        -0.001385      0.000509      0.001780
     -0.00053      7.23569      5.46467         0.000000     -0.000000      0.001630
      6.26665      3.61722      1.33857        -0.000000      0.000000      0.001630
     -0.23046      0.97124      1.43624         0.001066     -0.001288     -0.001320
      5.54023     10.16770      1.43624         0.000582      0.001567     -0.001320
     -5.30948     10.56703      1.43624        -0.001648     -0.000280     -0.001320
      6.49658      9.88166      5.56234        -0.001066      0.001288     -0.001320
      0.72589      0.68521      5.56234        -0.000582     -0.001567     -0.001320
     11.57560      0.28587      5.56234         0.001648      0.000280     -0.001320
      0.00000      0.00000      0.08843         0.000000     -0.000000      0.000958
      0.00000      0.00000      4.21452         0.000000     -0.000000      0.000958
      6.26665      3.61722      4.44507         0.000000     -0.000000      0.001357
     -0.00053      7.23569      0.31897        -0.000000      0.000000      0.001357
     -0.00053      7.23569      4.44246         0.000000     -0.000000      0.002293
      6.26665      3.61722      0.31636        -0.000000      0.000000      0.002293
      0.00000      0.00000      1.11027         0.000000     -0.000000     -0.003085
      0.00000      0.00000      5.23637         0.000000     -0.000000     -0.003085
 -----------------------------------------------------------------------------------
    total drift:                               -0.000000     -0.000000      0.000440


--------------------------------------------------------------------------------------------------------



  FREE ENERGIE OF THE ION-ELECTRON SYSTEM (eV)
  ---------------------------------------------------
  free  energy   TOTEN  =      -662.53404602 eV

  energy  without entropy=     -662.53404602  energy(sigma->0) =     -662.53404602
 


--------------------------------------------------------------------------------------------------------


    POTLOK:  cpu time      2.4464: real time      2.4454


--------------------------------------------------------------------------------------------------------


     LOOP+:  cpu time   2265.2848: real time   2261.2061
    4ORBIT:  cpu time      0.0000: real time      0.0000



 total charge

# of ion       s       p       d       tot
------------------------------------------
    1        0.301   0.371   8.166   8.838
    2        0.301   0.371   8.166   8.838
    3        0.301   0.371   8.166   8.838
    4        0.301   0.371   8.166   8.838
    5        0.301   0.371   8.166   8.838
    6        0.301   0.371   8.166   8.838
    7        1.568   3.566   0.000   5.134
    8        1.568   3.566   0.000   5.134
    9        1.568   3.566   0.000   5.134
   10        1.568   3.566   0.000   5.134
   11        1.568   3.566   0.000   5.134
   12        1.568   3.566   0.000   5.134
   13        1.571   3.558   0.000   5.129
   14        1.571   3.558   0.000   5.129
   15        1.571   3.558   0.000   5.129
   16        1.571   3.558   0.000   5.129
   17        1.571   3.558   0.000   5.129
   18        1.571   3.558   0.000   5.129
   19        1.568   3.563   0.000   5.131
   20        1.568   3.563   0.000   5.131
   21        1.568   3.563   0.000   5.131
   22        1.568   3.563   0.000   5.131
   23        1.568   3.563   0.000   5.131
   24        1.568   3.563   0.000   5.131
   25        1.571   3.559   0.000   5.130
   26        1.571   3.559   0.000   5.130
   27        1.571   3.559   0.000   5.130
   28        1.571   3.559   0.000   5.130
   29        1.571   3.559   0.000   5.130
   30        1.571   3.559   0.000   5.130
   31        1.571   3.559   0.000   5.130
   32        1.571   3.559   0.000   5.130
   33        1.571   3.559   0.000   5.130
   34        1.571   3.559   0.000   5.130
   35        1.571   3.559   0.000   5.130
   36        1.571   3.559   0.000   5.130
   37        1.568   3.564   0.000   5.132
   38        1.568   3.564   0.000   5.132
   39        1.568   3.564   0.000   5.132
   40        1.568   3.564   0.000   5.132
   41        1.568   3.564   0.000   5.132
   42        1.568   3.564   0.000   5.132
   43        0.876   1.711   0.000   2.587
   44        0.876   1.711   0.000   2.587
   45        0.876   1.711   0.000   2.587
   46        0.876   1.711   0.000   2.587
   47        0.876   1.711   0.000   2.587
   48        0.876   1.711   0.000   2.587
   49        0.876   1.710   0.000   2.586
   50        0.876   1.710   0.000   2.586
   51        0.876   1.710   0.000   2.586
   52        0.876   1.710   0.000   2.586
   53        0.876   1.710   0.000   2.586
   54        0.876   1.710   0.000   2.586
   55        0.876   1.711   0.000   2.587
   56        0.876   1.711   0.000   2.587
   57        0.876   1.711   0.000   2.587
   58        0.876   1.711   0.000   2.587
   59        0.876   1.711   0.000   2.587
   60        0.876   1.711   0.000   2.587
   61        0.640   0.048   0.000   0.689
   62        0.640   0.048   0.000   0.689
   63        0.640   0.048   0.000   0.689
   64        0.640   0.048   0.000   0.689
   65        0.640   0.048   0.000   0.689
   66        0.640   0.048   0.000   0.689
   67        0.641   0.048   0.000   0.688
   68        0.641   0.048   0.000   0.688
   69        0.641   0.048   0.000   0.688
   70        0.641   0.048   0.000   0.688
   71        0.641   0.048   0.000   0.688
   72        0.641   0.048   0.000   0.688
   73        0.640   0.048   0.000   0.689
   74        0.640   0.048   0.000   0.689
   75        0.640   0.048   0.000   0.689
   76        0.640   0.048   0.000   0.689
   77        0.640   0.048   0.000   0.689
   78        0.640   0.048   0.000   0.689
   79        0.581   0.088   0.000   0.669
   80        0.581   0.088   0.000   0.669
   81        0.581   0.088   0.000   0.669
   82        0.581   0.088   0.000   0.669
   83        0.581   0.088   0.000   0.669
   84        0.581   0.088   0.000   0.669
   85        0.626   0.084   0.000   0.710
   86        0.626   0.084   0.000   0.710
   87        0.579   0.087   0.000   0.666
   88        0.579   0.087   0.000   0.666
   89        0.579   0.087   0.000   0.666
   90        0.579   0.087   0.000   0.666
   91        0.579   0.087   0.000   0.666
   92        0.579   0.087   0.000   0.666
   93        0.625   0.084   0.000   0.709
   94        0.625   0.084   0.000   0.709
   95        0.580   0.088   0.000   0.668
   96        0.580   0.088   0.000   0.668
   97        0.580   0.088   0.000   0.668
   98        0.580   0.088   0.000   0.668
   99        0.580   0.088   0.000   0.668
  100        0.580   0.088   0.000   0.668
  101        0.626   0.084   0.000   0.710
  102        0.626   0.084   0.000   0.710
  103        1.224   2.807   0.000   4.031
  104        1.224   2.807   0.000   4.031
  105        1.224   2.803   0.000   4.027
  106        1.224   2.803   0.000   4.027
  107        1.224   2.805   0.000   4.029
  108        1.224   2.805   0.000   4.029
--------------------------------------------------
tot        107.146 181.015  48.993 337.154



 magnetization (x)

# of ion       s       p       d       tot
------------------------------------------
    1        0.001  -0.001   1.579   1.579
    2        0.001  -0.001   1.579   1.579
    3        0.001  -0.001   1.579   1.579
    4       -0.001   0.001  -1.579  -1.579
    5       -0.001   0.001  -1.579  -1.579
    6       -0.001   0.001  -1.579  -1.579
    7        0.005   0.042   0.000   0.047
    8        0.005   0.042   0.000   0.047
    9        0.005   0.042   0.000   0.047
   10       -0.005  -0.042   0.000  -0.047
   11       -0.005  -0.042   0.000  -0.047
   12       -0.005  -0.042   0.000  -0.047
   13       -0.004  -0.047   0.000  -0.052
   14       -0.004  -0.047   0.000  -0.052
   15       -0.004  -0.047   0.000  -0.052
   16        0.004   0.047   0.000   0.052
   17        0.004   0.047   0.000   0.052
   18        0.004   0.047   0.000   0.052
   19        0.005   0.043   0.000   0.047
   20        0.005   0.043   0.000   0.047
   21        0.005   0.043   0.000   0.047
   22       -0.005  -0.043   0.000  -0.047
   23       -0.005  -0.043   0.000  -0.047
   24       -0.005  -0.043   0.000  -0.047
   25       -0.004  -0.046   0.000  -0.050
   26       -0.004  -0.046   0.000  -0.050
   27       -0.004  -0.046   0.000  -0.050
   28        0.004   0.046   0.000   0.050
   29        0.004   0.046   0.000   0.050
   30        0.004   0.046   0.000   0.050
   31        0.004   0.046   0.000   0.050
   32        0.004   0.046   0.000   0.050
   33        0.004   0.046   0.000   0.050
   34       -0.004  -0.046   0.000  -0.050
   35       -0.004  -0.046   0.000  -0.050
   36       -0.004  -0.046   0.000  -0.050
   37       -0.005  -0.043   0.000  -0.048
   38       -0.005  -0.043   0.000  -0.048
   39       -0.005  -0.043   0.000  -0.048
   40        0.005   0.043   0.000   0.048
   41        0.005   0.043   0.000   0.048
   42        0.005   0.043   0.000   0.048
   43        0.000   0.000   0.000   0.000
   44        0.000   0.000   0.000   0.000
   45        0.000   0.000   0.000   0.000
   46       -0.000  -0.000   0.000  -0.000
   47       -0.000  -0.000   0.000  -0.000
   48       -0.000  -0.000   0.000  -0.000
   49        0.000  -0.000   0.000   0.000
   50        0.000  -0.000   0.000   0.000
   51        0.000  -0.000   0.000   0.000
   52       -0.000   0.000   0.000  -0.000
   53       -0.000   0.000   0.000  -0.000
   54       -0.000   0.000   0.000  -0.000
   55       -0.000   0.000   0.000  -0.000
   56       -0.000   0.000   0.000  -0.000
   57       -0.000   0.000   0.000  -0.000
   58        0.000  -0.000   0.000   0.000
   59        0.000  -0.000   0.000   0.000
   60        0.000  -0.000   0.000   0.000
   61       -0.000   0.000   0.000  -0.000
   62       -0.000   0.000   0.000  -0.000
   63       -0.000   0.000   0.000  -0.000
   64        0.000  -0.000   0.000   0.000
   65        0.000  -0.000   0.000   0.000
   66        0.000  -0.000   0.000   0.000
   67       -0.000  -0.000   0.000  -0.000
   68       -0.000  -0.000   0.000  -0.000
   69       -0.000  -0.000   0.000  -0.000
   70        0.000   0.000   0.000   0.000
   71        0.000   0.000   0.000   0.000
   72        0.000   0.000   0.000   0.000
   73        0.000  -0.000   0.000   0.000
   74        0.000  -0.000   0.000   0.000
   75        0.000  -0.000   0.000   0.000
   76       -0.000   0.000   0.000  -0.000
   77       -0.000   0.000   0.000  -0.000
   78       -0.000   0.000   0.000  -0.000
   79       -0.000   0.000   0.000   0.000
   80       -0.000   0.000   0.000   0.000
   81       -0.000   0.000   0.000   0.000
   82        0.000  -0.000   0.000  -0.000
   83        0.000  -0.000   0.000  -0.000
   84        0.000  -0.000   0.000  -0.000
   85        0.000   0.000   0.000   0.000
   86       -0.000  -0.000   0.000  -0.000
   87       -0.000   0.000   0.000   0.000
   88       -0.000   0.000   0.000   0.000
   89       -0.000   0.000   0.000   0.000
   90        0.000  -0.000   0.000  -0.000
   91        0.000  -0.000   0.000  -0.000
   92        0.000  -0.000   0.000  -0.000
   93        0.000   0.000   0.000   0.000
   94       -0.000  -0.000   0.000  -0.000
   95        0.000  -0.000   0.000  -0.000
   96        0.000  -0.000   0.000  -0.000
   97        0.000  -0.000   0.000  -0.000
   98       -0.000   0.000   0.000   0.000
   99       -0.000   0.000   0.000   0.000
  100       -0.000   0.000   0.000   0.000
  101       -0.000  -0.000   0.000  -0.000
  102        0.000   0.000   0.000   0.000
  103        0.000   0.001   0.000   0.001
  104       -0.000  -0.001   0.000  -0.001
  105        0.000   0.001   0.000   0.001
  106       -0.000  -0.001   0.000  -0.001
  107       -0.000  -0.001   0.000  -0.001
  108        0.000   0.001   0.000   0.001
--------------------------------------------------
tot          0.000   0.000   0.000   0.000
 

 total amount of memory used by VASP MPI-rank0  1394357. kBytes
=======================================================================

   base      :      30000. kBytes
   nonl-proj :    1019934. kBytes
   fftplans  :      27244. kBytes
   grid      :     108764. kBytes
   one-center:       3359. kBytes
   wavefun   :     205056. kBytes
 
  
  
 General timing and accounting informations for this job:
 ========================================================
  
                  Total CPU time used (sec):     2487.421
                            User time (sec):     2450.953
                          System time (sec):       36.469
                         Elapsed time (sec):     2484.098
  
                   Maximum memory used (kb):     1903168.
                   Average memory used (kb):          N/A
  
                          Minor page faults:      1360854
                          Major page faults:            2
                 Voluntary context switches:        37397
