 vasp.6.3.0 20Jan22 (build Apr  5 2022 13:58:26) complex                         
 executed on       Scout-CPU-21.9 date 2022.04.21  12:32:54
 running on  160 total cores
 distrk:  each k-point on   80 cores,    2 groups
 distr:  one band on NCORE=   1 cores,   80 groups


--------------------------------------------------------------------------------------------------------


 INCAR:
   AMIX = 0.1
   SYMPREC = 1.0d-3
   IVDW = 11           (DFT-D3 method of method with no damping)
   ISPIN = 2 (Spin polarised DFT)
   ISTART = 1            (Read existing wavefunction
   ICHARG = 11         (Non-self-consistent: GGA/LDA band structures)
   LORBIT = 11
   LASPH = T
   GGA_COMPAT = .FALSE.
   LREAL = .FALSE.       (Projection operators: automatic)
   ENCUT = 850.0      (Cut-off energy for plane wave basis set, in eV)
   PREC = Accurate     (Precision level)
   LMAXMIX = 4
   LWAVE = F
   LCHARG = F
   ADDGRID = .TRUE.        (Increase grid
   LPLANE = .TRUE.      (Real space distribution
   NWRITE = 2           (Medium-level output)
   KPAR = 2           (Divides k-grid into separate groups)
   NSW = 0          (number of ionic steps)
   ISMEAR = 0            (gaussian smearing method )
   SIGMA = 0.01         (please check the width of the smearing)
   IBRION = -1            (Algorithm: 0-MD
   ISIF = 3            (optimize atomic coordinates and lattice parameters)
   EDIFFG = -0.005       (Ionic convergence
   EDIFF = 1.0d-8
   NELM = 50
   NELMIN = 4
   NELMDL = -6
   ALGO = Normal
   KSPACING = 0.20
   KGAMMA = T
   MAGMOM = 4 4 4 -4 -4 -4 36*0 18*0 42*0 6*0
   LCALCPOL = T

 POTCAR:    PAW_PBE Fe_pv 02Aug2007               
 POTCAR:    PAW_PBE O 08Apr2002                   
 POTCAR:    PAW_PBE C 08Apr2002                   
 POTCAR:    PAW_PBE H 15Jun2001                   
 POTCAR:    PAW_PBE N 08Apr2002                   
 -----------------------------------------------------------------------------
|                                                                             |
|           W    W    AA    RRRRR   N    N  II  N    N   GGGG   !!!           |
|           W    W   A  A   R    R  NN   N  II  NN   N  G    G  !!!           |
|           W    W  A    A  R    R  N N  N  II  N N  N  G       !!!           |
|           W WW W  AAAAAA  RRRRR   N  N N  II  N  N N  G  GGG   !            |
|           WW  WW  A    A  R   R   N   NN  II  N   NN  G    G                |
|           W    W  A    A  R    R  N    N  II  N    N   GGGG   !!!           |
|                                                                             |
|     For optimal performance we recommend to set                             |
|       NCORE = 2 up to number-of-cores-per-socket                            |
|     NCORE specifies how many cores store one orbital (NPAR=cpu/NCORE).      |
|     This setting can greatly improve the performance of VASP for DFT.       |
|     The default, NCORE=1 might be grossly inefficient on modern             |
|     multi-core architectures or massively parallel machines. Do your        |
|     own testing! More info at https://www.vasp.at/wiki/index.php/NCORE      |
|     Unfortunately you need to use the default for GW and RPA                |
|     calculations (for HF NCORE is supported but not extensively tested      |
|     yet).                                                                   |
|                                                                             |
 -----------------------------------------------------------------------------

 POTCAR:    PAW_PBE Fe_pv 02Aug2007               
   SHA256 =  5d22e414b1f82158bf2c7ecb8b97b28fd0923e48cadc1c3bf74d524558f5dd32 Fe_pv/POTCAR          
   COPYR  = (c) Copyright 02Aug2007 Georg Kresse                                                    
   COPYR  = This file is part of the software VASP. Any use, copying, and all other rights are regul
   COPYR  = If you do not have a valid VASP license, you may not use, copy or distribute this file. 
   VRHFIN =Fe:  3pd7s1                                                                              
   LEXCH  = PE                                                                                      
   EATOM  =  2457.4239 eV,  180.6156 Ry                                                             
                                                                                                    
   TITEL  = PAW_PBE Fe_pv 02Aug2007                                                                 
   LULTRA =        F    use ultrasoft PP ?                                                          
   IUNSCR =        1    unscreen: 0-lin 1-nonlin 2-no                                               
   RPACOR =    1.750    partial core radius                                                         
   POMASS =   55.847; ZVAL   =   14.000    mass and valenz                                          
   RCORE  =    2.200    outmost cutoff radius                                                       
   RWIGS  =    2.200; RWIGS  =    1.164    wigner-seitz radius (au A)                               
   ENMAX  =  293.238; ENMIN  =  219.928 eV                                                          
   ICORE  =        3    local potential                                                             
   LCOR   =        T    correct aug charges                                                         
   LPAW   =        T    paw PP                                                                      
   EAUG   =  578.342                                                                                
   DEXC   =    0.000                                                                                
   RMAX   =    2.249    core radius for proj-oper                                                   
   RAUG   =    1.300    factor for augmentation sphere                                              
   RDEP   =    2.296    radius for radial grids                                                     
   RDEPT  =    1.766    core radius for aug-charge                                                  
                                                                                                    
   Atomic configuration                                                                             
    8 entries                                                                                       
     n  l   j            E        occ.                                                              
     1  0  0.50     -6993.8440   2.0000                                                             
     2  0  0.50      -814.6047   2.0000                                                             
     2  1  1.50      -693.3689   6.0000                                                             
     3  0  0.50       -89.4732   2.0000                                                             
     3  1  1.50       -55.6373   6.0000                                                             
     3  2  2.50        -3.8151   7.0000                                                             
     4  0  0.50        -4.2551   1.0000                                                             
     4  3  2.50        -1.3606   0.0000                                                             
   Description                                                                                      
     l       E           TYP  RCUT    TYP  RCUT                                                     
     1    -55.6372668     23  2.000                                                                 
     1     -5.4423304     23  2.000                                                                 
     2     -3.8151096     23  2.200                                                                 
     2     -5.1756922     23  2.200                                                                 
     0     -4.2550951     23  2.200                                                                 
     0     27.2116520     23  2.200                                                                 
     3     -1.3605826     23  2.200                                                                 
  local pseudopotential read in
  partial core-charges read in
  partial kinetic energy density read in
  atomic valenz-charges read in
  non local Contribution for L=            1  read in
    real space projection operators read in
  non local Contribution for L=            1  read in
    real space projection operators read in
  non local Contribution for L=            2  read in
    real space projection operators read in
  non local Contribution for L=            2  read in
    real space projection operators read in
  non local Contribution for L=            0  read in
    real space projection operators read in
  non local Contribution for L=            0  read in
    real space projection operators read in
    PAW grid and wavefunctions read in
 
   number of l-projection  operators is LMAX  =            6
   number of lm-projection operators is LMMAX =           18
 
 POTCAR:    PAW_PBE O 08Apr2002                   
   SHA256 =  818f92134a0a090dccd8ba1447fa70422a3b330e708bb4f08108d8ae51209ddf O/POTCAR              
   COPYR  = (c) Copyright 08Apr2002 Georg Kresse                                                    
   COPYR  = This file is part of the software VASP. Any use, copying, and all other rights are regul
   COPYR  = If you do not have a valid VASP license, you may not use, copy or distribute this file. 
   VRHFIN =O: s2p4                                                                                  
   LEXCH  = PE                                                                                      
   EATOM  =   432.3788 eV,   31.7789 Ry                                                             
                                                                                                    
   TITEL  = PAW_PBE O 08Apr2002                                                                     
   LULTRA =        F    use ultrasoft PP ?                                                          
   IUNSCR =        1    unscreen: 0-lin 1-nonlin 2-no                                               
   RPACOR =    1.200    partial core radius                                                         
   POMASS =   16.000; ZVAL   =    6.000    mass and valenz                                          
   RCORE  =    1.520    outmost cutoff radius                                                       
   RWIGS  =    1.550; RWIGS  =    0.820    wigner-seitz radius (au A)                               
   ENMAX  =  400.000; ENMIN  =  300.000 eV                                                          
   ICORE  =        2    local potential                                                             
   LCOR   =        T    correct aug charges                                                         
   LPAW   =        T    paw PP                                                                      
   EAUG   =  605.392                                                                                
   DEXC   =    0.000                                                                                
   RMAX   =    1.553    core radius for proj-oper                                                   
   RAUG   =    1.300    factor for augmentation sphere                                              
   RDEP   =    1.550    radius for radial grids                                                     
   RDEPT  =    1.329    core radius for aug-charge                                                  
                                                                                                    
   Atomic configuration                                                                             
    4 entries                                                                                       
     n  l   j            E        occ.                                                              
     1  0  0.50      -514.6923   2.0000                                                             
     2  0  0.50       -23.9615   2.0000                                                             
     2  1  0.50        -9.0305   4.0000                                                             
     3  2  1.50        -9.5241   0.0000                                                             
   Description                                                                                      
     l       E           TYP  RCUT    TYP  RCUT                                                     
     0    -23.9615318     23  1.200                                                                 
     0     -9.5240782     23  1.200                                                                 
     1     -9.0304911     23  1.520                                                                 
     1      8.1634956     23  1.520                                                                 
     2     -9.5240782      7  1.500                                                                 
  local pseudopotential read in
  partial core-charges read in
  partial kinetic energy density read in
  kinetic energy density of atom read in
  atomic valenz-charges read in
  non local Contribution for L=            0  read in
    real space projection operators read in
  non local Contribution for L=            0  read in
    real space projection operators read in
  non local Contribution for L=            1  read in
    real space projection operators read in
  non local Contribution for L=            1  read in
    real space projection operators read in
    PAW grid and wavefunctions read in
 
   number of l-projection  operators is LMAX  =            4
   number of lm-projection operators is LMMAX =            8
 
 POTCAR:    PAW_PBE C 08Apr2002                   
   SHA256 =  253f7b50bb8d59471dbedb8285d89021f4a42ed1a2c5d38a03a736e69125dd95 C/POTCAR              
   COPYR  = (c) Copyright 08Apr2002 Georg Kresse                                                    
   COPYR  = This file is part of the software VASP. Any use, copying, and all other rights are regul
   COPYR  = If you do not have a valid VASP license, you may not use, copy or distribute this file. 
   VRHFIN =C: s2p2                                                                                  
   LEXCH  = PE                                                                                      
   EATOM  =   147.1560 eV,   10.8157 Ry                                                             
                                                                                                    
   TITEL  = PAW_PBE C 08Apr2002                                                                     
   LULTRA =        F    use ultrasoft PP ?                                                          
   IUNSCR =        1    unscreen: 0-lin 1-nonlin 2-no                                               
   RPACOR =    1.200    partial core radius                                                         
   POMASS =   12.011; ZVAL   =    4.000    mass and valenz                                          
   RCORE  =    1.500    outmost cutoff radius                                                       
   RWIGS  =    1.630; RWIGS  =    0.863    wigner-seitz radius (au A)                               
   ENMAX  =  400.000; ENMIN  =  300.000 eV                                                          
   ICORE  =        2    local potential                                                             
   LCOR   =        T    correct aug charges                                                         
   LPAW   =        T    paw PP                                                                      
   EAUG   =  644.873                                                                                
   DEXC   =    0.000                                                                                
   RMAX   =    1.529    core radius for proj-oper                                                   
   RAUG   =    1.300    factor for augmentation sphere                                              
   RDEP   =    1.501    radius for radial grids                                                     
   RDEPT  =    1.300    core radius for aug-charge                                                  
                                                                                                    
   Atomic configuration                                                                             
    4 entries                                                                                       
     n  l   j            E        occ.                                                              
     1  0  0.50      -273.3789   2.0000                                                             
     2  0  0.50       -13.7508   2.0000                                                             
     2  1  0.50        -5.2854   2.0000                                                             
     3  2  1.50        -5.4423   0.0000                                                             
   Description                                                                                      
     l       E           TYP  RCUT    TYP  RCUT                                                     
     0    -13.7508458     23  1.200                                                                 
     0     -8.2022199     23  1.200                                                                 
     1     -5.2854383     23  1.500                                                                 
     1     34.0145650     23  1.500                                                                 
     2     -5.4423304      7  1.500                                                                 
  local pseudopotential read in
  partial core-charges read in
  partial kinetic energy density read in
  atomic valenz-charges read in
  non local Contribution for L=            0  read in
    real space projection operators read in
  non local Contribution for L=            0  read in
    real space projection operators read in
  non local Contribution for L=            1  read in
    real space projection operators read in
  non local Contribution for L=            1  read in
    real space projection operators read in
    PAW grid and wavefunctions read in
 
   number of l-projection  operators is LMAX  =            4
   number of lm-projection operators is LMMAX =            8
 
 POTCAR:    PAW_PBE H 15Jun2001                   
   SHA256 =  030f79b5d3ab3cf0e668861823c8fb652ff669f3e15e46930bd03bfd63a607b6 H/POTCAR              
   COPYR  = (c) Copyright 15Jun2001 Georg Kresse                                                    
   COPYR  = This file is part of the software VASP. Any use, copying, and all other rights are regul
   COPYR  = If you do not have a valid VASP license, you may not use, copy or distribute this file. 
   VRHFIN =H: ultrasoft test                                                                        
   LEXCH  = PE                                                                                      
   EATOM  =    12.4884 eV,    0.9179 Ry                                                             
                                                                                                    
   TITEL  = PAW_PBE H 15Jun2001                                                                     
   LULTRA =        F    use ultrasoft PP ?                                                          
   IUNSCR =        0    unscreen: 0-lin 1-nonlin 2-no                                               
   RPACOR =    0.000    partial core radius                                                         
   POMASS =    1.000; ZVAL   =    1.000    mass and valenz                                          
   RCORE  =    1.100    outmost cutoff radius                                                       
   RWIGS  =    0.700; RWIGS  =    0.370    wigner-seitz radius (au A)                               
   ENMAX  =  250.000; ENMIN  =  200.000 eV                                                          
   RCLOC  =    0.701    cutoff for local pot                                                        
   LCOR   =        T    correct aug charges                                                         
   LPAW   =        T    paw PP                                                                      
   EAUG   =  400.000                                                                                
   RMAX   =    1.123    core radius for proj-oper                                                   
   RAUG   =    1.200    factor for augmentation sphere                                              
   RDEP   =    1.112    radius for radial grids                                                     
   RDEPT  =    0.926    core radius for aug-charge                                                  
                                                                                                    
   Atomic configuration                                                                             
    2 entries                                                                                       
     n  l   j            E        occ.                                                              
     1  0  0.50        -6.4927   1.0000                                                             
     2  1  0.50        -3.4015   0.0000                                                             
   Description                                                                                      
     l       E           TYP  RCUT    TYP  RCUT                                                     
     0     -6.4927494     23  1.100                                                                 
     0      6.8029130     23  1.100                                                                 
     1     -4.0817478     23  1.100                                                                 
  local pseudopotential read in
  atomic valenz-charges read in
  non local Contribution for L=            0  read in
    real space projection operators read in
  non local Contribution for L=            0  read in
    real space projection operators read in
  non local Contribution for L=            1  read in
    real space projection operators read in
    PAW grid and wavefunctions read in
 
   number of l-projection  operators is LMAX  =            3
   number of lm-projection operators is LMMAX =            5
 
 POTCAR:    PAW_PBE N 08Apr2002                   
   SHA256 =  e053789ff3a61a86a1b75d8a110fcc91f86041011e7b0817c7c99e4e8a6349d7 N/POTCAR              
   COPYR  = (c) Copyright 08Apr2002 Georg Kresse                                                    
   COPYR  = This file is part of the software VASP. Any use, copying, and all other rights are regul
   COPYR  = If you do not have a valid VASP license, you may not use, copy or distribute this file. 
   VRHFIN =N: s2p3                                                                                  
   LEXCH  = PE                                                                                      
   EATOM  =   264.5486 eV,   19.4438 Ry                                                             
                                                                                                    
   TITEL  = PAW_PBE N 08Apr2002                                                                     
   LULTRA =        F    use ultrasoft PP ?                                                          
   IUNSCR =        1    unscreen: 0-lin 1-nonlin 2-no                                               
   RPACOR =    1.200    partial core radius                                                         
   POMASS =   14.001; ZVAL   =    5.000    mass and valenz                                          
   RCORE  =    1.500    outmost cutoff radius                                                       
   RWIGS  =    1.400; RWIGS  =    0.741    wigner-seitz radius (au A)                               
   ENMAX  =  400.000; ENMIN  =  300.000 eV                                                          
   ICORE  =        2    local potential                                                             
   LCOR   =        T    correct aug charges                                                         
   LPAW   =        T    paw PP                                                                      
   EAUG   =  627.112                                                                                
   DEXC   =    0.000                                                                                
   RMAX   =    1.529    core radius for proj-oper                                                   
   RAUG   =    1.300    factor for augmentation sphere                                              
   RDEP   =    1.514    radius for radial grids                                                     
   RDEPT  =    1.338    core radius for aug-charge                                                  
                                                                                                    
   Atomic configuration                                                                             
    4 entries                                                                                       
     n  l   j            E        occ.                                                              
     1  0  0.50      -384.7179   2.0000                                                             
     2  0  0.50       -18.5828   2.0000                                                             
     2  1  0.50        -7.0898   3.0000                                                             
     3  2  1.50        -6.8029   0.0000                                                             
   Description                                                                                      
     l       E           TYP  RCUT    TYP  RCUT                                                     
     0    -18.5828119     23  1.200                                                                 
     0    -13.5018863     23  1.200                                                                 
     1     -7.0897853     23  1.500                                                                 
     1      9.5240782     23  1.500                                                                 
     2     -6.8029130      7  1.500                                                                 
  local pseudopotential read in
  partial core-charges read in
  partial kinetic energy density read in
  atomic valenz-charges read in
  non local Contribution for L=            0  read in
    real space projection operators read in
  non local Contribution for L=            0  read in
    real space projection operators read in
  non local Contribution for L=            1  read in
    real space projection operators read in
  non local Contribution for L=            1  read in
    real space projection operators read in
    PAW grid and wavefunctions read in
 
   number of l-projection  operators is LMAX  =            4
   number of lm-projection operators is LMMAX =            8
 
 -----------------------------------------------------------------------------
|                                                                             |
|               ----> ADVICE to this user running VASP <----                  |
|                                                                             |
|     You have a (more or less) 'large supercell' and for larger cells it     |
|     might be more efficient to use real-space projection operators.         |
|     Therefore, try LREAL= Auto in the INCAR file.                           |
|     Mind: For very accurate calculation, you might also keep the            |
|     reciprocal projection scheme (i.e. LREAL=.FALSE.).                      |
|                                                                             |
 -----------------------------------------------------------------------------

  PAW_PBE Fe_pv 02Aug2007               :
 energy of atom  1       EATOM=-2457.4239
 kinetic energy error for atom=    0.0011 (will be added to EATOM!!)
  PAW_PBE O 08Apr2002                   :
 energy of atom  2       EATOM= -432.3788
 kinetic energy error for atom=    0.0031 (will be added to EATOM!!)
  PAW_PBE C 08Apr2002                   :
 energy of atom  3       EATOM= -147.1560
 kinetic energy error for atom=    0.0012 (will be added to EATOM!!)
  PAW_PBE H 15Jun2001                   :
 energy of atom  4       EATOM=  -12.4884
 kinetic energy error for atom=    0.0002 (will be added to EATOM!!)
  PAW_PBE N 08Apr2002                   :
 energy of atom  5       EATOM= -264.5486
 kinetic energy error for atom=    0.0021 (will be added to EATOM!!)
 
 
 POSCAR: crystal
  positions in direct lattice
  velocities in cartesian coordinates
 exchange correlation table for  LEXCH =        8
   RHO(1)=    0.500       N(1)  =     2000
   RHO(2)=  100.500       N(2)  =     4000
 


--------------------------------------------------------------------------------------------------------


 ion  position               nearest neighbor table
   1  0.337  0.330  0.589-   7 2.11  41 2.12  18 2.13  19 2.14  28 2.17  31 2.18
   2  0.670  0.007  0.589-   8 2.11  42 2.12  16 2.13  20 2.14  29 2.17  32 2.18
   3  0.993  0.663  0.589-   9 2.11  40 2.12  17 2.13  21 2.14  30 2.17  33 2.18
   4  0.663  0.670  0.089-  10 2.11  38 2.12  15 2.13  22 2.14  25 2.17  34 2.18
   5  0.330  0.993  0.089-  11 2.11  39 2.12  13 2.13  23 2.14  26 2.17  35 2.18
   6  0.007  0.337  0.089-  12 2.11  37 2.12  14 2.13  24 2.14  27 2.17  36 2.18
   7  0.426  0.264  0.439-  43 1.28   1 2.11
   8  0.736  0.162  0.439-  44 1.28   2 2.11
   9  0.838  0.574  0.439-  45 1.28   3 2.11
  10  0.574  0.736  0.939-  46 1.28   4 2.11
  11  0.264  0.838  0.939-  47 1.28   5 2.11
  12  0.162  0.426  0.939-  48 1.28   6 2.11
  13  0.425  0.152  0.234-  43 1.26   5 2.13
  14  0.848  0.274  0.234-  44 1.26   6 2.13
  15  0.726  0.575  0.234-  45 1.26   4 2.13
  16  0.575  0.848  0.734-  46 1.26   2 2.13
  17  0.152  0.726  0.734-  47 1.26   3 2.13
  18  0.274  0.425  0.734-  48 1.26   1 2.13
  19  0.403  0.491  0.444-  49 1.28   1 2.14
  20  0.509  0.913  0.444-  50 1.28   2 2.14
  21  0.087  0.597  0.444-  51 1.28   3 2.14
  22  0.597  0.509  0.944-  52 1.28   4 2.14
  23  0.491  0.087  0.944-  53 1.28   5 2.14
  24  0.913  0.403  0.944-  54 1.28   6 2.14
  25  0.498  0.605  0.231-  49 1.27   4 2.17
  26  0.395  0.892  0.231-  50 1.27   5 2.17
  27  0.108  0.502  0.231-  51 1.27   6 2.17
  28  0.502  0.395  0.731-  52 1.27   1 2.17
  29  0.605  0.108  0.731-  53 1.27   2 2.17
  30  0.892  0.498  0.731-  54 1.27   3 2.17
  31  0.168  0.231  0.451-  55 1.26   1 2.18
  32  0.769  0.937  0.451-  56 1.26   2 2.18
  33  0.063  0.832  0.451-  57 1.26   3 2.18
  34  0.832  0.769  0.951-  58 1.26   4 2.18
  35  0.231  0.063  0.951-  59 1.26   5 2.18
  36  0.937  0.168  0.951-  60 1.26   6 2.18
  37  0.072  0.244  0.236-  55 1.28   6 2.12
  38  0.756  0.827  0.236-  56 1.28   4 2.12
  39  0.173  0.928  0.236-  57 1.28   5 2.12
  40  0.928  0.756  0.736-  58 1.28   3 2.12
  41  0.244  0.173  0.736-  59 1.28   1 2.12
  42  0.827  0.072  0.736-  60 1.28   2 2.12
  43  0.371  0.184  0.331-  61 1.10  13 1.26   7 1.28
  44  0.816  0.187  0.331-  62 1.10  14 1.26   8 1.28
  45  0.813  0.629  0.331-  63 1.10  15 1.26   9 1.28
  46  0.629  0.816  0.831-  64 1.10  16 1.26  10 1.28
  47  0.184  0.813  0.831-  65 1.10  17 1.26  11 1.28
  48  0.187  0.371  0.831-  66 1.10  18 1.26  12 1.28
  49  0.467  0.513  0.319-  67 1.10  25 1.27  19 1.28
  50  0.487  0.955  0.319-  68 1.10  26 1.27  20 1.28
  51  0.045  0.533  0.319-  69 1.10  27 1.27  21 1.28
  52  0.533  0.487  0.819-  70 1.10  28 1.27  22 1.28
  53  0.513  0.045  0.819-  71 1.10  29 1.27  23 1.28
  54  0.955  0.467  0.819-  72 1.10  30 1.27  24 1.28
  55  0.138  0.291  0.359-  73 1.10  31 1.26  37 1.28
  56  0.709  0.847  0.359-  74 1.10  32 1.26  38 1.28
  57  0.153  0.862  0.359-  75 1.10  33 1.26  39 1.28
  58  0.862  0.709  0.859-  76 1.10  34 1.26  40 1.28
  59  0.291  0.153  0.859-  77 1.10  35 1.26  41 1.28
  60  0.847  0.138  0.859-  78 1.10  36 1.26  42 1.28
  61  0.269  0.142  0.325-  43 1.10
  62  0.858  0.128  0.325-  44 1.10
  63  0.872  0.731  0.325-  45 1.10
  64  0.731  0.858  0.825-  46 1.10
  65  0.142  0.872  0.825-  47 1.10
  66  0.128  0.269  0.825-  48 1.10
  67  0.499  0.447  0.288-  49 1.10
  68  0.553  0.052  0.288-  50 1.10
  69  0.948  0.501  0.288-  51 1.10
  70  0.501  0.553  0.788-  52 1.10
  71  0.447  0.948  0.788-  53 1.10
  72  0.052  0.499  0.788-  54 1.10
  73  0.171  0.389  0.383-  55 1.10
  74  0.611  0.782  0.383-  56 1.10
  75  0.218  0.829  0.383-  57 1.10
  76  0.829  0.611  0.883-  58 1.10
  77  0.389  0.218  0.883-  59 1.10
  78  0.782  0.171  0.883-  60 1.10
  79  0.577  0.307  0.495- 103 1.05
  80  0.693  0.270  0.495- 103 1.05
  81  0.730  0.423  0.495- 103 1.05
  82  0.423  0.693  0.995- 104 1.05
  83  0.307  0.730  0.995- 104 1.05
  84  0.270  0.577  0.995- 104 1.05
  85  0.667  0.333  0.654- 103 1.02
  86  0.333  0.667  0.154- 104 1.02
  87  0.360  0.603  0.498- 105 1.05
  88  0.397  0.756  0.498- 105 1.05
  89  0.244  0.640  0.498- 105 1.05
  90  0.640  0.397  0.998- 106 1.05
  91  0.603  0.244  0.998- 106 1.05
  92  0.756  0.360  0.998- 106 1.05
  93  0.333  0.667  0.657- 105 1.02
  94  0.667  0.333  0.157- 106 1.02
  95  0.028  0.090  0.182- 107 1.05
  96  0.910  0.938  0.182- 107 1.05
  97  0.062  0.972  0.182- 107 1.05
  98  0.972  0.910  0.682- 108 1.05
  99  0.090  0.062  0.682- 108 1.05
 100  0.938  0.028  0.682- 108 1.05
 101  0.000  1.000  0.023- 107 1.02
 102  1.000  1.000  0.523- 108 1.02
 103  0.667  0.333  0.534-  85 1.02  80 1.05  81 1.05  79 1.05
 104  0.333  0.667  0.034-  86 1.02  83 1.05  84 1.05  82 1.05
 105  0.333  0.667  0.537-  93 1.02  88 1.05  89 1.05  87 1.05
 106  0.667  0.333  0.037-  94 1.02  91 1.05  92 1.05  90 1.05
 107  0.000  0.000  0.143- 101 1.02  97 1.05  95 1.05  96 1.05
 108  1.000  1.000  0.643- 102 1.02 100 1.05  98 1.05  99 1.05
 
  LATTYP: Found a hexagonal cell.
 ALAT       =    12.5137873691
 C/A-ratio  =     0.6794287558
  
  Lattice vectors:
  
 A1 = (  12.5137873680,  -0.0001631237,  -0.0000126352)
 A2 = (  -6.2567845784,  10.8372861575,  -0.0000000002)
 A3 = (   0.0000000280,   0.0000000163,   8.5022269824)


Analysis of symmetry for initial positions (statically):
=====================================================================
 Subroutine PRICEL returns:
 Original cell was already a primitive cell.
 

 Routine SETGRP: Setting up the symmetry group for a 
 hexagonal supercell.


 Subroutine GETGRP returns: Found  6 space group operations
 (whereof  3 operations were pure point group operations)
 out of a pool of 24 trial point group operations.


The static configuration has the point symmetry C_3 .
 The point group associated with its full space group is C_6 .


Analysis of symmetry for dynamics (positions and initial velocities):
=====================================================================
 Subroutine PRICEL returns:
 Original cell was already a primitive cell.
 

 Routine SETGRP: Setting up the symmetry group for a 
 hexagonal supercell.


 Subroutine GETGRP returns: Found  6 space group operations
 (whereof  3 operations were pure point group operations)
 out of a pool of 24 trial point group operations.


The dynamic configuration has the point symmetry C_3 .
 The point group associated with its full space group is C_6 .


Analysis of structural, dynamic, and magnetic symmetry:
=====================================================================
 Subroutine PRICEL returns:
 Original cell was already a primitive cell.
 

 Routine SETGRP: Setting up the symmetry group for a 
 hexagonal supercell.


 Subroutine GETGRP returns: Found  6 space group operations
 (whereof  3 operations were pure point group operations)
 out of a pool of 24 trial point group operations.


The overall configuration has the point symmetry C_3 .
 The point group associated with its full space group is C_6 .


 Subroutine INISYM returns: Found  6 space group operations
 (whereof  3 operations are pure point group operations),
 and found     1 'primitive' translations


----------------------------------------------------------------------------------------

                                     Primitive cell                                     

  volume of cell :    1153.0250

  direct lattice vectors                    reciprocal lattice vectors
    12.513787368 -0.000163124 -0.000012635     0.079912459  0.046136555 -0.000000000
    -6.256784578 10.837286158 -0.000000000     0.000001203  0.092274718 -0.000000000
     0.000000028  0.000000016  8.502226982     0.000000119  0.000000069  0.117616244

  length of vectors
    12.513787369 12.513757410  8.502226982     0.092274497  0.092274718  0.117616244

  position of ions in fractional coordinates (direct lattice)
     0.337250615  0.330055345  0.588667538
     0.669945936  0.007196245  0.588667407
     0.992803708  0.662749275  0.588669309
     0.662748235  0.669945585  0.088667728
     0.330053474  0.992803985  0.088667197
     0.007198712  0.337251545  0.088667989
     0.425966231  0.264249954  0.439318097
     0.735751118  0.161716857  0.439321257
     0.838282046  0.574032581  0.439322444
     0.574030459  0.735751676  0.939315937
     0.264247682  0.838280933  0.939318767
     0.161719284  0.425967079  0.939316214
     0.425411523  0.151858312  0.233520066
     0.848139763  0.273552307  0.233519338
     0.726447242  0.574588037  0.233520191
     0.574590297  0.848143318  0.733517166
     0.151857457  0.726446763  0.733518888
     0.273554928  0.425409873  0.733517871
     0.403220063  0.490534537  0.444153351
     0.509464553  0.912680610  0.444152179
     0.087317231  0.596782161  0.444152576
     0.596777717  0.509460003  0.944150361
     0.490535937  0.087316950  0.944147679
     0.912680559  0.403218649  0.944149926
     0.497535286  0.605134227  0.230820613
     0.394860658  0.892401415  0.230820977
     0.107599095  0.502462282  0.230821451
     0.502457654  0.394863113  0.730818223
     0.605138272  0.107597655  0.730819507
     0.892402195  0.497540498  0.730819801
     0.167781990  0.230570212  0.451195664
     0.769429442  0.937212439  0.451193155
     0.062788647  0.832219587  0.451194134
     0.832221500  0.769433158  0.951195154
     0.230566188  0.062786871  0.951190425
     0.937209653  0.167779023  0.951196474
     0.071632110  0.244256066  0.235952562
     0.755744637  0.827376973  0.235954610
     0.172625554  0.928369457  0.235952603
     0.928369270  0.755742084  0.735953842
     0.244256263  0.172626627  0.735954000
     0.827374826  0.071632513  0.735954473
     0.370651680  0.184088460  0.331034731
     0.815910452  0.186563414  0.331034677
     0.813434463  0.629346103  0.331034704
     0.629345000  0.815912120  0.831031241
     0.184088778  0.813434846  0.831034777
     0.186564857  0.370652737  0.831035854
     0.467468234  0.512767744  0.318850217
     0.487228066  0.954698425  0.318848304
     0.045301071  0.532530158  0.318850443
     0.532528976  0.487228076  0.818847477
     0.512772604  0.045304125  0.818852074
     0.954696319  0.467469262  0.818851803
     0.137897596  0.290503677  0.359136647
     0.709494992  0.847393423  0.359135708
     0.152607040  0.862102227  0.359136469
     0.862104734  0.709497373  0.859135487
     0.290503808  0.152607387  0.859135978
     0.847391650  0.137895573  0.859133929
     0.269435402  0.141811245  0.324875110
     0.858187439  0.127624591  0.324875886
     0.872376643  0.730564196  0.324876623
     0.730563488  0.858187945  0.824874600
     0.141812431  0.872375759  0.824876316
     0.127623387  0.269434064  0.824877903
     0.499097098  0.447465166  0.287581685
     0.552533239  0.051632136  0.287583742
     0.948367472  0.500901926  0.287584715
     0.500904152  0.552535534  0.787582585
     0.447465351  0.948366244  0.787584032
     0.051631638  0.499097494  0.787584575
     0.170598383  0.388820891  0.383347394
     0.611177690  0.781776867  0.383346517
     0.218220503  0.829398887  0.383347795
     0.829399417  0.611179339  0.883350914
     0.388821030  0.218221973  0.883348867
     0.781778277  0.170600883  0.883347445
     0.577441953  0.307064902  0.494682067
     0.692932921  0.270378895  0.494682755
     0.729626911  0.422556325  0.494682315
     0.422557877  0.692935558  0.994681687
     0.307066789  0.729621335  0.994681885
     0.270373329  0.577444145  0.994681775
     0.666665884  0.333334948  0.653961617
     0.333334376  0.666665172  0.153961417
     0.359624421  0.603432265  0.498066513
     0.396560256  0.756186416  0.498063108
     0.243816943  0.640380271  0.498063674
     0.640375989  0.396567965  0.998065893
     0.603439074  0.243814044  0.998063718
     0.756183067  0.359619149  0.998062944
     0.333334055  0.666665732  0.657138597
     0.666666235  0.333334038  0.157138797
     0.028186354  0.089862366  0.181500290
     0.910134276  0.938323787  0.181503350
     0.061672720  0.971812757  0.181504425
     0.971811676  0.910135894  0.681501840
     0.089863964  0.061673893  0.681501980
     0.938326380  0.028187243  0.681503945
     0.000000502  0.999998312  0.022663792
     0.999998718  0.999999718  0.522663792
     0.666667144  0.333333985  0.533711678
     0.333332596  0.666666715  0.033711628
     0.333334072  0.666668926  0.536835076
     0.666666178  0.333331774  0.036834686
     0.000002410  0.000000089  0.142922219
     0.999996990  0.999998521  0.642921779

  ion indices of the primitive-cell ions
   primitive index   ion index
                 1           1
                 2           2
                 3           3
                 4           4
                 5           5
                 6           6
                 7           7
                 8           8
                 9           9
                10          10
                11          11
                12          12
                13          13
                14          14
                15          15
                16          16
                17          17
                18          18
                19          19
                20          20
                21          21
                22          22
                23          23
                24          24
                25          25
                26          26
                27          27
                28          28
                29          29
                30          30
                31          31
                32          32
                33          33
                34          34
                35          35
                36          36
                37          37
                38          38
                39          39
                40          40
                41          41
                42          42
                43          43
                44          44
                45          45
                46          46
                47          47
                48          48
                49          49
                50          50
                51          51
                52          52
                53          53
                54          54
                55          55
                56          56
                57          57
                58          58
                59          59
                60          60
                61          61
                62          62
                63          63
                64          64
                65          65
                66          66
                67          67
                68          68
                69          69
                70          70
                71          71
                72          72
                73          73
                74          74
                75          75
                76          76
                77          77
                78          78
                79          79
                80          80
                81          81
                82          82
                83          83
                84          84
                85          85
                86          86
                87          87
                88          88
                89          89
                90          90
                91          91
                92          92
                93          93
                94          94
                95          95
                96          96
                97          97
                98          98
                99          99
               100         100
               101         101
               102         102
               103         103
               104         104
               105         105
               106         106
               107         107
               108         108

----------------------------------------------------------------------------------------

 
 -----------------------------------------------------------------------------
|                                                                             |
|           W    W    AA    RRRRR   N    N  II  N    N   GGGG   !!!           |
|           W    W   A  A   R    R  NN   N  II  NN   N  G    G  !!!           |
|           W    W  A    A  R    R  N N  N  II  N N  N  G       !!!           |
|           W WW W  AAAAAA  RRRRR   N  N N  II  N  N N  G  GGG   !            |
|           WW  WW  A    A  R   R   N   NN  II  N   NN  G    G                |
|           W    W  A    A  R    R  N    N  II  N    N   GGGG   !!!           |
|                                                                             |
|     The requested file  could not be found or opened for reading            |
|     k-point information. Automatic k-point generation is used as a          |
|     fallback, which may lead to unwanted results.                           |
|                                                                             |
 -----------------------------------------------------------------------------

 

Automatic generation of k-mesh.
 Grid dimensions derived from KSPACING:
 generate k-points for:    3    3    4

 Generating k-lattice:

  Cartesian coordinates                     Fractional coordinates (reciprocal lattice)
     0.026637486  0.015378852 -0.000000000     0.333333333  0.000000000  0.000000000
     0.000000401  0.030758239 -0.000000000    -0.000000000  0.333333333  0.000000000
     0.000000030  0.000000017  0.029404061     0.000000000  0.000000000  0.250000000

  Length of vectors
     0.030758166  0.030758239  0.029404061

  Shift w.r.t. Gamma in fractional coordinates (k-lattice)
     0.000000000  0.000000000  0.000000000

 
 Subroutine IBZKPT returns following result:
 ===========================================
 
 Found      9 irreducible k-points:
 
 Following reciprocal coordinates:
            Coordinates               Weight
  0.000000  0.000000  0.000000      1.000000
  0.333333  0.000000  0.000000      6.000000
  0.333333  0.333333  0.000000      2.000000
  0.000000  0.000000  0.250000      2.000000
  0.333333  0.000000  0.250000     12.000000
  0.333333  0.333333  0.250000      4.000000
  0.000000  0.000000  0.500000      1.000000
  0.333333  0.000000  0.500000      6.000000
  0.333333  0.333333  0.500000      2.000000
 
 Following cartesian coordinates:
            Coordinates               Weight
  0.000000  0.000000  0.000000      1.000000
  0.026637  0.015379 -0.000000      6.000000
  0.026638  0.046137 -0.000000      2.000000
  0.000000  0.000000  0.029404      2.000000
  0.026638  0.015379  0.029404     12.000000
  0.026638  0.046137  0.029404      4.000000
  0.000000  0.000000  0.058808      1.000000
  0.026638  0.015379  0.058808      6.000000
  0.026638  0.046137  0.058808      2.000000
 
 
 Subroutine IBZKPT_HF returns following result:
 ==============================================
 
 Found     36 k-points in 1st BZ
 the following     36 k-points will be used (e.g. in the exchange kernel)
 Following reciprocal coordinates:   # in IRBZ
  0.000000  0.000000  0.000000    0.02777778   1 t-inv F
  0.333333  0.000000  0.000000    0.02777778   2 t-inv F
  0.333333  0.333333  0.000000    0.02777778   3 t-inv F
  0.000000  0.000000  0.250000    0.02777778   4 t-inv F
  0.333333  0.000000  0.250000    0.02777778   5 t-inv F
  0.333333  0.333333  0.250000    0.02777778   6 t-inv F
  0.000000  0.000000  0.500000    0.02777778   7 t-inv F
  0.333333  0.000000  0.500000    0.02777778   8 t-inv F
  0.333333  0.333333  0.500000    0.02777778   9 t-inv F
 -0.333333  0.333333  0.000000    0.02777778   2 t-inv F
  0.000000 -0.333333  0.000000    0.02777778   2 t-inv F
 -0.000000  0.333333  0.000000    0.02777778   2 t-inv F spinflp
 -0.333333 -0.000000  0.000000    0.02777778   2 t-inv F spinflp
  0.333333 -0.333333  0.000000    0.02777778   2 t-inv F spinflp
 -0.333333  0.666667  0.000000    0.02777778   3 t-inv F spinflp
 -0.333333  0.333333  0.250000    0.02777778   5 t-inv F
  0.000000 -0.333333  0.250000    0.02777778   5 t-inv F
 -0.000000  0.333333  0.250000    0.02777778   5 t-inv F spinflp
 -0.333333 -0.000000  0.250000    0.02777778   5 t-inv F spinflp
  0.333333 -0.333333  0.250000    0.02777778   5 t-inv F spinflp
 -0.333333  0.666667  0.250000    0.02777778   6 t-inv F spinflp
 -0.333333  0.333333  0.500000    0.02777778   8 t-inv F
  0.000000 -0.333333  0.500000    0.02777778   8 t-inv F
 -0.000000  0.333333  0.500000    0.02777778   8 t-inv F spinflp
 -0.333333 -0.000000  0.500000    0.02777778   8 t-inv F spinflp
  0.333333 -0.333333  0.500000    0.02777778   8 t-inv F spinflp
 -0.333333  0.666667  0.500000    0.02777778   9 t-inv F spinflp
 -0.000000 -0.000000 -0.250000    0.02777778   4 t-inv T
 -0.333333 -0.000000 -0.250000    0.02777778   5 t-inv T
  0.333333 -0.333333 -0.250000    0.02777778   5 t-inv T
 -0.000000  0.333333 -0.250000    0.02777778   5 t-inv T
  0.000000 -0.333333 -0.250000    0.02777778   5 t-inv T spinflp
  0.333333  0.000000 -0.250000    0.02777778   5 t-inv T spinflp
 -0.333333  0.333333 -0.250000    0.02777778   5 t-inv T spinflp
 -0.333333 -0.333333 -0.250000    0.02777778   6 t-inv T
  0.333333 -0.666667 -0.250000    0.02777778   6 t-inv T spinflp


--------------------------------------------------------------------------------------------------------




 Dimension of arrays:
   k-points           NKPTS =      9   k-points in BZ     NKDIM =      9   number of bands    NBANDS=    320
   number of dos      NEDOS =    301   number of ions     NIONS =    108
   non local maximal  LDIM  =      6   non local SUM 2l+1 LMDIM =     18
   total plane-waves  NPLWV = ******
   max r-space proj   IRMAX =      1   max aug-charges    IRDMAX= 248732
   dimension x,y,z NGX =   120 NGY =  120 NGZ =   84
   dimension x,y,z NGXF=   240 NGYF=  240 NGZF=  168
   support grid    NGXF=   480 NGYF=  480 NGZF=  336
   ions per type =               6  36  18  42   6
   NGX,Y,Z   is equivalent  to a cutoff of  15.94, 15.94, 16.42 a.u.
   NGXF,Y,Z  is equivalent  to a cutoff of  31.88, 31.88, 32.85 a.u.

 SYSTEM =  unknown system                          
 POSCAR =  crystal                                 

 Startparameter for this run:
   NWRITE =      2    write-flag & timer
   PREC   = accura    normal or accurate (medium, high low for compatibility)
   ISTART =      1    job   : 0-new  1-cont  2-samecut
   ICHARG =     11    charge: 1-file 2-atom 10-const
   ISPIN  =      2    spin polarized calculation?
   LNONCOLLINEAR =      F non collinear calculations
   LSORBIT =      F    spin-orbit coupling
   INIWAV =      1    electr: 0-lowe 1-rand  2-diag
   LASPH  =      T    aspherical Exc in radial PAW
 Electronic Relaxation 1
   ENCUT  =  850.0 eV  62.47 Ry    7.90 a.u.  29.75 29.75 20.21*2*pi/ulx,y,z
   ENINI  =  850.0     initial cutoff
   ENAUG  =  644.9 eV  augmentation charge cutoff
   NELM   =     50;   NELMIN=  4; NELMDL= -6     # of ELM steps 
   EDIFF  = 0.1E-07   stopping-criterion for ELM
   LREAL  =      F    real-space projection
   NLSPLINE    = F    spline interpolate recip. space projectors
   LCOMPAT=      F    compatible to vasp.4.4
   GGA_COMPAT  = F    GGA compatible to vasp.4.4-vasp.4.6
   LMAXPAW     = -100 max onsite density
   LMAXMIX     =    4 max onsite mixed and CHGCAR
   VOSKOWN=      0    Vosko Wilk Nusair interpolation
   ROPT   =    0.00000   0.00000   0.00000   0.00000
   ROPT   =    0.00000
 Ionic relaxation
   EDIFFG = -.5E-02   stopping-criterion for IOM
   NSW    =      0    number of steps for IOM
   NBLOCK =      1;   KBLOCK =      1    inner block; outer block 
   IBRION =     -1    ionic relax: 0-MD 1-quasi-New 2-CG
   NFREE  =      0    steps in history (QN), initial steepest desc. (CG)
   ISIF   =      3    stress and relaxation
   IWAVPR =     10    prediction:  0-non 1-charg 2-wave 3-comb
   ISYM   =      2    0-nonsym 1-usesym 2-fastsym
   LCORR  =      T    Harris-Foulkes like correction to forces

   POTIM  = 0.5000    time-step for ionic-motion
   TEIN   =    0.0    initial temperature
   TEBEG  =    0.0;   TEEND  =   0.0 temperature during run
   SMASS  =  -3.00    Nose mass-parameter (am)
   estimated Nose-frequenzy (Omega)   =  0.10E-29 period in steps = 0.13E+47 mass=  -0.358E-26a.u.
   SCALEE = 1.0000    scale energy and forces
   NPACO  =    256;   APACO  = 10.0  distance and # of slots for P.C.
   PSTRESS=    0.0 pullay stress

  Mass of Ions in am
   POMASS =  55.85 16.00 12.01  1.00 14.00
  Ionic Valenz
   ZVAL   =  14.00  6.00  4.00  1.00  5.00
  Atomic Wigner-Seitz radii
   RWIGS  =  -1.00 -1.00 -1.00 -1.00 -1.00
  virtual crystal weights 
   VCA    =   1.00  1.00  1.00  1.00  1.00
   NELECT =     444.0000    total number of electrons
   NUPDOWN=      -1.0000    fix difference up-down

 DOS related values:
   EMIN   =  10.00;   EMAX   =-10.00  energy-range for DOS
   EFERMI =   0.00
   ISMEAR =     0;   SIGMA  =   0.01  broadening in eV -4-tet -1-fermi 0-gaus

 Electronic relaxation 2 (details)
   IALGO  =     38    algorithm
   LDIAG  =      T    sub-space diagonalisation (order eigenvalues)
   LSUBROT=      F    optimize rotation matrix (better conditioning)
   TURBO    =      0    0=normal 1=particle mesh
   IRESTART =      0    0=no restart 2=restart with 2 vectors
   NREBOOT  =      0    no. of reboots
   NMIN     =      0    reboot dimension
   EREF     =   0.00    reference energy to select bands
   IMIX   =      4    mixing-type and parameters
     AMIX     =   0.10;   BMIX     =  1.00
     AMIX_MAG =   0.40;   BMIX_MAG =  1.00
     AMIN     =   0.10
     WC   =   100.;   INIMIX=   1;  MIXPRE=   1;  MAXMIX= -45

 Intra band minimization:
   WEIMIN = 0.0000     energy-eigenvalue tresh-hold
   EBREAK =  0.78E-11  absolut break condition
   DEPER  =   0.30     relativ break condition  

   TIME   =   0.40     timestep for ELM

  volume/ion in A,a.u.               =      10.68        72.05
  Fermi-wavevector in a.u.,A,eV,Ry     =   1.191031  2.250721 19.300596  1.418554
  Thomas-Fermi vector in A             =   2.327102
 
 Write flags
   LWAVE        =      F    write WAVECAR
   LDOWNSAMPLE  =      F    k-point downsampling of WAVECAR
   LCHARG       =      F    write CHGCAR
   LVTOT        =      F    write LOCPOT, total local potential
   LVHAR        =      F    write LOCPOT, Hartree potential only
   LELF         =      F    write electronic localiz. function (ELF)
   LORBIT       =     11    0 simple, 1 ext, 2 COOP (PROOUT), +10 PAW based schemes


 Dipole corrections
   LMONO  =      F    monopole corrections only (constant potential shift)
   LDIPOL =      F    correct potential (dipole corrections)
   IDIPOL =      0    1-x, 2-y, 3-z, 4-all directions 
   EPSILON=  1.0000000 bulk dielectric constant

 Exchange correlation treatment:
   GGA     =    --    GGA type
   LEXCH   =     8    internal setting for exchange type
   LIBXC   =     F    Libxc                    
   VOSKOWN =     0    Vosko Wilk Nusair interpolation
   LHFCALC =     F    Hartree Fock is set to
   LHFONE  =     F    Hartree Fock one center treatment
   AEXX    =    0.0000 exact exchange contribution

 Linear response parameters
   LEPSILON=     F    determine dielectric tensor
   LRPA    =     F    only Hartree local field effects (RPA)
   LNABLA  =     F    use nabla operator in PAW spheres
   LVEL    =     F    velocity operator in full k-point grid
   CSHIFT  =0.1000    complex shift for real part using Kramers Kronig
   OMEGAMAX=  -1.0    maximum frequency
   DEG_THRESHOLD= 0.2000000E-02 threshold for treating states as degnerate
   RTIME   =   -0.100 relaxation time in fs
  (WPLASMAI=    0.000 imaginary part of plasma frequency in eV, 0.658/RTIME)
   DFIELD  = 0.0000000 0.0000000 0.0000000 field for delta impulse in time
 
  Optional k-point grid parameters
   LKPOINTS_OPT  =     F    use optional k-point grid
   KPOINTS_OPT_MODE=     1    mode for optional k-point grid
 
 Orbital magnetization related:
   ORBITALMAG=     F  switch on orbital magnetization
   LCHIMAG   =     F  perturbation theory with respect to B field
   DQ        =  0.001000  dq finite difference perturbation B field
   LLRAUG    =     F  two centre corrections for induced B field

 PEAD related settings:
   LPEAD      =     T    switch on PEAD
   IPEAD      =     4    finite difference order for dpsi/dk
   LCALCPOL   =     T    calculate macroscopic polarization
   LCALCEPS   =     F    calculate dielectric tensor
   EFIELD_PEAD=    0.0000    0.0000    0.0000
   SKIP_EDOTP =     F
   LRPA       =     F
   SKIP_SCF   =     F


--------------------------------------------------------------------------------------------------------


 Static calculation
 charge density and potential remain constant during run
 spin polarized calculation
 Variant of blocked Davidson
 Davidson routine will perform the subspace rotation
 perform sub-space diagonalisation
    after iterative eigenvector-optimisation
 no mixing
 using additional bands            98
 reciprocal scheme for non local part
 use partial core corrections
 calculate Harris-corrections to forces 
   (improved forces if not selfconsistent)
 use gradient corrections 
 WARNING: stress and forces are not correct
  (second derivative of E(xc) not defined)
 use of overlap-Matrix (Vanderbilt PP)
 Gauss-broadening in eV      SIGMA  =   0.01


--------------------------------------------------------------------------------------------------------


  energy-cutoff  :      850.00
  volume of cell :     1153.03
      direct lattice vectors                 reciprocal lattice vectors
    12.513787368 -0.000163124 -0.000012635     0.079912459  0.046136555 -0.000000000
    -6.256784578 10.837286158 -0.000000000     0.000001203  0.092274718 -0.000000000
     0.000000028  0.000000016  8.502226982     0.000000119  0.000000069  0.117616244

  length of vectors
    12.513787369 12.513757410  8.502226982     0.092274497  0.092274718  0.117616244


 
 old parameters found on file WAVECAR:
  energy-cutoff  :      850.00
  volume of cell :     1153.03
      direct lattice vectors                 reciprocal lattice vectors
    12.513787368 -0.000163124 -0.000012635     0.079912459  0.046136555 -0.000000000
    -6.256784578 10.837286158 -0.000000000     0.000001203  0.092274718 -0.000000000
     0.000000028  0.000000016  8.502226982     0.000000119  0.000000069  0.117616244

  length of vectors

 
 k-points in units of 2pi/SCALE and weight: read from INCAR                         
   0.00000000  0.00000000  0.00000000       0.028
   0.02663749  0.01537885 -0.00000000       0.167
   0.02663789  0.04613709 -0.00000000       0.056
   0.00000003  0.00000002  0.02940406       0.056
   0.02663752  0.01537887  0.02940406       0.333
   0.02663792  0.04613711  0.02940406       0.111
   0.00000006  0.00000003  0.05880812       0.028
   0.02663755  0.01537889  0.05880812       0.167
   0.02663795  0.04613713  0.05880812       0.056
 
 k-points in reciprocal lattice and weights: read from INCAR                         
   0.00000000  0.00000000  0.00000000       0.028
   0.33333333  0.00000000  0.00000000       0.167
   0.33333333  0.33333333  0.00000000       0.056
   0.00000000  0.00000000  0.25000000       0.056
   0.33333333  0.00000000  0.25000000       0.333
   0.33333333  0.33333333  0.25000000       0.111
   0.00000000  0.00000000  0.50000000       0.028
   0.33333333  0.00000000  0.50000000       0.167
   0.33333333  0.33333333  0.50000000       0.056
 
 position of ions in fractional coordinates (direct lattice) 
   0.33725061  0.33005534  0.58866754
   0.66994594  0.00719624  0.58866741
   0.99280371  0.66274928  0.58866931
   0.66274824  0.66994559  0.08866773
   0.33005347  0.99280399  0.08866720
   0.00719871  0.33725154  0.08866799
   0.42596623  0.26424995  0.43931810
   0.73575112  0.16171686  0.43932126
   0.83828205  0.57403258  0.43932244
   0.57403046  0.73575168  0.93931594
   0.26424768  0.83828093  0.93931877
   0.16171928  0.42596708  0.93931621
   0.42541152  0.15185831  0.23352007
   0.84813976  0.27355231  0.23351934
   0.72644724  0.57458804  0.23352019
   0.57459030  0.84814332  0.73351717
   0.15185746  0.72644676  0.73351889
   0.27355493  0.42540987  0.73351787
   0.40322006  0.49053454  0.44415335
   0.50946455  0.91268061  0.44415218
   0.08731723  0.59678216  0.44415258
   0.59677772  0.50946000  0.94415036
   0.49053594  0.08731695  0.94414768
   0.91268056  0.40321865  0.94414993
   0.49753529  0.60513423  0.23082061
   0.39486066  0.89240142  0.23082098
   0.10759910  0.50246228  0.23082145
   0.50245765  0.39486311  0.73081822
   0.60513827  0.10759765  0.73081951
   0.89240219  0.49754050  0.73081980
   0.16778199  0.23057021  0.45119566
   0.76942944  0.93721244  0.45119316
   0.06278865  0.83221959  0.45119413
   0.83222150  0.76943316  0.95119515
   0.23056619  0.06278687  0.95119043
   0.93720965  0.16777902  0.95119647
   0.07163211  0.24425607  0.23595256
   0.75574464  0.82737697  0.23595461
   0.17262555  0.92836946  0.23595260
   0.92836927  0.75574208  0.73595384
   0.24425626  0.17262663  0.73595400
   0.82737483  0.07163251  0.73595447
   0.37065168  0.18408846  0.33103473
   0.81591045  0.18656341  0.33103468
   0.81343446  0.62934610  0.33103470
   0.62934500  0.81591212  0.83103124
   0.18408878  0.81343485  0.83103478
   0.18656486  0.37065274  0.83103585
   0.46746823  0.51276774  0.31885022
   0.48722807  0.95469843  0.31884830
   0.04530107  0.53253016  0.31885044
   0.53252898  0.48722808  0.81884748
   0.51277260  0.04530412  0.81885207
   0.95469632  0.46746926  0.81885180
   0.13789760  0.29050368  0.35913665
   0.70949499  0.84739342  0.35913571
   0.15260704  0.86210223  0.35913647
   0.86210473  0.70949737  0.85913549
   0.29050381  0.15260739  0.85913598
   0.84739165  0.13789557  0.85913393
   0.26943540  0.14181124  0.32487511
   0.85818744  0.12762459  0.32487589
   0.87237664  0.73056420  0.32487662
   0.73056349  0.85818795  0.82487460
   0.14181243  0.87237576  0.82487632
   0.12762339  0.26943406  0.82487790
   0.49909710  0.44746517  0.28758168
   0.55253324  0.05163214  0.28758374
   0.94836747  0.50090193  0.28758472
   0.50090415  0.55253553  0.78758258
   0.44746535  0.94836624  0.78758403
   0.05163164  0.49909749  0.78758458
   0.17059838  0.38882089  0.38334739
   0.61117769  0.78177687  0.38334652
   0.21822050  0.82939889  0.38334780
   0.82939942  0.61117934  0.88335091
   0.38882103  0.21822197  0.88334887
   0.78177828  0.17060088  0.88334745
   0.57744195  0.30706490  0.49468207
   0.69293292  0.27037890  0.49468275
   0.72962691  0.42255633  0.49468231
   0.42255788  0.69293556  0.99468169
   0.30706679  0.72962133  0.99468188
   0.27037333  0.57744414  0.99468177
   0.66666588  0.33333495  0.65396162
   0.33333438  0.66666517  0.15396142
   0.35962442  0.60343227  0.49806651
   0.39656026  0.75618642  0.49806311
   0.24381694  0.64038027  0.49806367
   0.64037599  0.39656796  0.99806589
   0.60343907  0.24381404  0.99806372
   0.75618307  0.35961915  0.99806294
   0.33333406  0.66666573  0.65713860
   0.66666623  0.33333404  0.15713880
   0.02818635  0.08986237  0.18150029
   0.91013428  0.93832379  0.18150335
   0.06167272  0.97181276  0.18150443
   0.97181168  0.91013589  0.68150184
   0.08986396  0.06167389  0.68150198
   0.93832638  0.02818724  0.68150395
   0.00000050  0.99999831  0.02266379
   0.99999872  0.99999972  0.52266379
   0.66666714  0.33333399  0.53371168
   0.33333260  0.66666671  0.03371163
   0.33333407  0.66666893  0.53683508
   0.66666618  0.33333177  0.03683469
   0.00000241  0.00000009  0.14292222
   0.99999699  0.99999852  0.64292178
 
 position of ions in cartesian coordinates  (Angst):
   2.15519731  3.57684921  5.00498076
   8.33853565  0.07787849  5.00497545
   8.27705507  7.18224161  5.00498754
   4.10178529  7.26028391  0.75386477
  -2.08154167 10.75924705  0.75386446
  -2.02002711  3.65489032  0.75387528
   3.67709581  2.86368289  3.73517679
   8.19520552  1.75245184  3.73519975
   6.89848509  6.22081861  3.73520854
   2.57985540  7.97345783  7.98627005
  -1.93820388  9.08464727  7.98629803
  -0.64146350  4.61630076  7.98627761
   4.37336460  1.64566259  1.98543523
   8.90188280  2.96442629  1.98542370
   5.49553276  6.22685648  1.98543249
   1.88365079  9.19147813  6.23652218
  -2.64490896  7.87268669  6.23654216
   0.76151029  4.61024392  6.23653198
   1.97664121  5.31599738  3.77628751
   0.66488513  9.89089784  3.77627620
  -2.64126814  6.46748481  3.77628491
   4.28036800  5.52106651  8.02737314
   5.59213909  0.94619877  8.02735167
   8.89823825  4.36964702  8.02736544
   2.43985629  6.55793162  1.96248296
  -0.64236109  9.67114510  1.96248735
  -1.79732606  5.44530999  1.96249501
   3.81707483  4.27916260  6.21357607
   6.89935634  1.16596787  6.21358569
   8.05432762  5.39184319  6.21358455
   0.65696002  2.49872800  3.83616583
   3.76454011 10.15671389  3.83613690
  -4.42129489  9.01899158  3.83615414
   5.60006540  8.33843158  8.08726659
   2.49241235  0.68040169  8.08723399
  10.67828514  1.81811642  8.08727648
  -0.63186859  2.64706120  2.00612133
   4.28050821  8.96639774  2.00613010
  -3.64840822 10.06097731  2.00612041
   6.88890025  8.19004180  6.25723488
   1.97648334  1.87076432  6.25724487
   9.90540347  0.77616708  6.25724152
   3.48645449  1.99495886  2.81452774
   9.04284283  2.02170801  2.81452165
   6.24146292  6.82027113  2.81452192
   2.77050316  8.84217048  7.06560829
  -2.78583875  8.81539618  7.06564398
   0.01553865  4.01683935  7.06565311
   2.64152077  5.55693452  2.71093101
   0.12372604 10.34626056  2.71091449
  -2.76503850  5.77117432  2.71093827
   3.61547329  5.28014323  6.96202039
   6.13326921  0.49089013  6.96205972
   9.02201229  5.06594244  6.96205183
  -0.09199773  3.14824899  3.05345955
   3.57651137  9.18332929  3.05344434
  -3.48429586  9.34282365  3.05345785
   6.34902314  7.68888544  7.30455403
   2.68047136  1.65380255  7.30456542
   9.74129605  1.49427557  7.30454096
   2.48437493  1.53680509  2.76215852
   9.94065557  1.38296423  2.76215768
   6.34575303  7.91719094  2.76216377
   3.77261907  9.30030918  7.01326185
  -3.68365656  9.45416262  7.01328388
  -0.08873895  2.91991325  7.01329755
   3.44590181  4.84922664  2.44507845
   6.59123232  0.55946211  2.44509527
   8.73363345  5.42826282  2.44509854
   2.81111227  5.98790400  6.69619957
  -0.33423701 10.27764339  6.69621255
  -2.47663814  5.40885395  6.69622217
  -0.29793666  4.21373544  3.25930440
   2.75673822  8.47223993  3.25929138
  -2.45860518  8.98839749  3.25930721
   6.55491051  6.62339011  7.51043949
   3.50025585  2.36487055  7.51042766
   8.71559418  1.84872307  7.51041061
   5.30474688  3.32765603  4.20589192
   6.97951275  2.93006043  4.20589631
   6.48655213  4.57924480  4.20589210
   0.95225095  7.50947201  8.45700414
  -0.72251498  7.90706512  8.45700728
  -0.22954924  6.25788335  8.45700681
   6.25691017  3.61233748  5.56012168
   0.00009514  7.22478687  1.30901070
   0.72471785  6.53950948  4.23467000
   0.23117524  8.19494390  4.23464058
  -0.95564801  6.93994448  4.23464733
   5.53228867  4.29761607  8.48577467
   6.02581633  2.64218415  8.48575665
   7.21265459  3.89717229  8.48574814
   0.00008764  7.22479294  5.58713730
   6.25692024  3.61232761  1.33602130
  -0.20953142  0.97385958  1.54315630
   5.51833702 10.16873492  1.54317118
  -5.30866376 10.53180288  1.54319104
   6.46652047  9.86324461  5.79427105
   0.73865829  0.66836298  5.79428339
  11.56565532  0.30532017  5.79428937
  -6.25676773 10.83726786  0.19269270
   6.25698853 10.83711999  4.44379356
   6.25693196  3.61232705  4.53772940
   0.00006321  7.22480358  0.28661970
   0.00006786  7.22482756  4.56428945
   6.25693369  3.61230307  0.31316843
   0.00002961  0.00000096  1.21515715
   6.25697439 10.83710702  5.46625427
 


--------------------------------------------------------------------------------------------------------


 k-point   1 :   0.0000 0.0000 0.0000  plane waves:   64979
 k-point   2 :   0.3333 0.0000 0.0000  plane waves:   64846
 k-point   3 :   0.3333 0.3333 0.0000  plane waves:   64926
 k-point   4 :   0.0000 0.0000 0.2500  plane waves:   64906
 k-point   5 :   0.3333 0.0000 0.2500  plane waves:   64873
 k-point   6 :   0.3333 0.3333 0.2500  plane waves:   64875
 k-point   7 :   0.0000 0.0000 0.5000  plane waves:   64972
 k-point   8 :   0.3333 0.0000 0.5000  plane waves:   64896
 k-point   9 :   0.3333 0.3333 0.5000  plane waves:   64854

 maximum and minimum number of plane-waves per node :     64979    64846

 maximum number of plane-waves:     64979
 maximum index in each direction: 
   IXMAX=   29   IYMAX=   29   IZMAX=   20
   IXMIN=  -30   IYMIN=  -30   IZMIN=  -20


 serial   3D FFT for wavefunctions
 parallel 3D FFT for charge:
    minimum data exchange during FFTs selected (reduces bandwidth)


 total amount of memory used by VASP MPI-rank0   775699. kBytes
=======================================================================

   base      :      30000. kBytes
   nonl-proj :     533848. kBytes
   fftplans  :      22710. kBytes
   grid      :     109935. kBytes
   one-center:       3359. kBytes
   wavefun   :      75847. kBytes
 
     INWAV:  cpu time     28.5641: real time     28.5683
 initial charge density was supplied:
 number of electron     444.0000004 magnetization      -0.0000000
 keeping initial charge density in first step


--------------------------------------------------------------------------------------------------------


 Maximum index for augmentation-charges          4294 (set IRDMAX)


--------------------------------------------------------------------------------------------------------


 First call to EWALD:  gamma=   0.169
 Maximum number of real-space cells 3x 3x 3
 Maximum number of reciprocal cells 3x 3x 2

    FEWALD:  cpu time      0.3653: real time      0.3653


--------------------------------------- Iteration      1(   1)  ---------------------------------------


    POTLOK:  cpu time      0.4799: real time      0.4803
    SETDIJ:  cpu time      1.4473: real time      1.4475
     EDDAV:  cpu time     56.8826: real time     56.7905
       DOS:  cpu time      0.0024: real time      0.0024
    --------------------------------------------
      LOOP:  cpu time     58.8122: real time     58.7208

 eigenvalue-minimisations  : 13040
 total energy-change (2. order) :-0.6684541E+03  (-0.3569037E+02)
 number of electron     444.0000004 magnetization      -0.0000000
 augmentation part      444.0000004 magnetization      -0.0000000

 Free energy of the ion-electron system (eV)
  ---------------------------------------------------
  alpha Z        PSCENC =       759.44026262
  Ewald energy   TEWEN  =    -15027.45337654
  -Hartree energ DENC   =    -17639.38747205
  -exchange      EXHF   =         0.00000000
  -V(xc)+E(xc)   XCENC  =      1940.55468161
  PAW double counting   =     42787.47753368   -43439.42868203
  entropy T*S    EENTRO =        -0.00000000
  eigenvalues    EBANDS =     -5120.28884452
  atomic energy  EATOM  =     35070.63183198
  Solvation  Ediel_sol  =         0.00000000
  ---------------------------------------------------
  free energy    TOTEN  =      -668.45406525 eV

  energy without entropy =     -668.45406525  energy(sigma->0) =     -668.45406525


--------------------------------------------------------------------------------------------------------




--------------------------------------- Iteration      1(   2)  ---------------------------------------


     EDDAV:  cpu time     56.5641: real time     56.4606
       DOS:  cpu time      0.0026: real time      0.0026
    --------------------------------------------
      LOOP:  cpu time     56.5666: real time     56.4632

 eigenvalue-minimisations  : 13360
 total energy-change (2. order) :-0.5337467E+01  (-0.5294012E+01)
 number of electron     444.0000004 magnetization      -0.0000000
 augmentation part      444.0000004 magnetization      -0.0000000

 Free energy of the ion-electron system (eV)
  ---------------------------------------------------
  alpha Z        PSCENC =       759.44026262
  Ewald energy   TEWEN  =    -15027.45337654
  -Hartree energ DENC   =    -17639.38747205
  -exchange      EXHF   =         0.00000000
  -V(xc)+E(xc)   XCENC  =      1940.55468161
  PAW double counting   =     42787.47753368   -43439.42868203
  entropy T*S    EENTRO =        -0.00000000
  eigenvalues    EBANDS =     -5125.62631119
  atomic energy  EATOM  =     35070.63183198
  Solvation  Ediel_sol  =         0.00000000
  ---------------------------------------------------
  free energy    TOTEN  =      -673.79153192 eV

  energy without entropy =     -673.79153192  energy(sigma->0) =     -673.79153192


--------------------------------------------------------------------------------------------------------




--------------------------------------- Iteration      1(   3)  ---------------------------------------


     EDDAV:  cpu time     67.4550: real time     67.3171
       DOS:  cpu time      0.0023: real time      0.0023
    --------------------------------------------
      LOOP:  cpu time     67.4573: real time     67.3194

 eigenvalue-minimisations  : 16800
 total energy-change (2. order) :-0.7883669E-01  (-0.7871110E-01)
 number of electron     444.0000004 magnetization      -0.0000000
 augmentation part      444.0000004 magnetization      -0.0000000

 Free energy of the ion-electron system (eV)
  ---------------------------------------------------
  alpha Z        PSCENC =       759.44026262
  Ewald energy   TEWEN  =    -15027.45337654
  -Hartree energ DENC   =    -17639.38747205
  -exchange      EXHF   =         0.00000000
  -V(xc)+E(xc)   XCENC  =      1940.55468161
  PAW double counting   =     42787.47753368   -43439.42868203
  entropy T*S    EENTRO =        -0.00000000
  eigenvalues    EBANDS =     -5125.70514788
  atomic energy  EATOM  =     35070.63183198
  Solvation  Ediel_sol  =         0.00000000
  ---------------------------------------------------
  free energy    TOTEN  =      -673.87036862 eV

  energy without entropy =     -673.87036862  energy(sigma->0) =     -673.87036862


--------------------------------------------------------------------------------------------------------




--------------------------------------- Iteration      1(   4)  ---------------------------------------


     EDDAV:  cpu time     55.0582: real time     54.9583
       DOS:  cpu time      0.0026: real time      0.0026
    --------------------------------------------
      LOOP:  cpu time     55.0607: real time     54.9609

 eigenvalue-minimisations  : 13040
 total energy-change (2. order) :-0.8866731E-03  (-0.8865368E-03)
 number of electron     444.0000004 magnetization      -0.0000000
 augmentation part      444.0000004 magnetization      -0.0000000

 Free energy of the ion-electron system (eV)
  ---------------------------------------------------
  alpha Z        PSCENC =       759.44026262
  Ewald energy   TEWEN  =    -15027.45337654
  -Hartree energ DENC   =    -17639.38747205
  -exchange      EXHF   =         0.00000000
  -V(xc)+E(xc)   XCENC  =      1940.55468161
  PAW double counting   =     42787.47753368   -43439.42868203
  entropy T*S    EENTRO =        -0.00000000
  eigenvalues    EBANDS =     -5125.70603456
  atomic energy  EATOM  =     35070.63183198
  Solvation  Ediel_sol  =         0.00000000
  ---------------------------------------------------
  free energy    TOTEN  =      -673.87125529 eV

  energy without entropy =     -673.87125529  energy(sigma->0) =     -673.87125529


--------------------------------------------------------------------------------------------------------




--------------------------------------- Iteration      1(   5)  ---------------------------------------


     EDDAV:  cpu time     66.0017: real time     65.8826
       DOS:  cpu time      0.0028: real time      0.0028
    --------------------------------------------
      LOOP:  cpu time     66.0045: real time     65.8854

 eigenvalue-minimisations  : 16480
 total energy-change (2. order) :-0.2907861E-04  (-0.2907761E-04)
 number of electron     444.0000004 magnetization      -0.0000000
 augmentation part      444.0000004 magnetization      -0.0000000

 Free energy of the ion-electron system (eV)
  ---------------------------------------------------
  alpha Z        PSCENC =       759.44026262
  Ewald energy   TEWEN  =    -15027.45337654
  -Hartree energ DENC   =    -17639.38747205
  -exchange      EXHF   =         0.00000000
  -V(xc)+E(xc)   XCENC  =      1940.55468161
  PAW double counting   =     42787.47753368   -43439.42868203
  entropy T*S    EENTRO =        -0.00000000
  eigenvalues    EBANDS =     -5125.70606364
  atomic energy  EATOM  =     35070.63183198
  Solvation  Ediel_sol  =         0.00000000
  ---------------------------------------------------
  free energy    TOTEN  =      -673.87128437 eV

  energy without entropy =     -673.87128437  energy(sigma->0) =     -673.87128437


--------------------------------------------------------------------------------------------------------




--------------------------------------- Iteration      1(   6)  ---------------------------------------


     EDDAV:  cpu time     54.3952: real time     54.2892
       DOS:  cpu time      0.0024: real time      0.0024
    --------------------------------------------
      LOOP:  cpu time     54.3976: real time     54.2916

 eigenvalue-minimisations  : 13040
 total energy-change (2. order) :-0.5772090E-06  (-0.5779230E-06)
 number of electron     444.0000004 magnetization      -0.0000000
 augmentation part      444.0000004 magnetization      -0.0000000

 Free energy of the ion-electron system (eV)
  ---------------------------------------------------
  alpha Z        PSCENC =       759.44026262
  Ewald energy   TEWEN  =    -15027.45337654
  -Hartree energ DENC   =    -17639.38747205
  -exchange      EXHF   =         0.00000000
  -V(xc)+E(xc)   XCENC  =      1940.55468161
  PAW double counting   =     42787.47753368   -43439.42868203
  entropy T*S    EENTRO =        -0.00000000
  eigenvalues    EBANDS =     -5125.70606421
  atomic energy  EATOM  =     35070.63183198
  Solvation  Ediel_sol  =         0.00000000
  ---------------------------------------------------
[...]
     -1.93820      9.08465      7.98630         0.001261     -0.000433      0.001973
     -0.64146      4.61630      7.98628        -0.000255      0.001308      0.001973
      4.37336      1.64566      1.98544         0.001445     -0.000571     -0.000790
      8.90188      2.96443      1.98542        -0.000228      0.001537     -0.000790
      5.49553      6.22686      1.98543        -0.001218     -0.000966     -0.000789
      1.88365      9.19148      6.23652        -0.001445      0.000571     -0.000789
     -2.64491      7.87269      6.23654         0.000228     -0.001537     -0.000789
      0.76151      4.61024      6.23653         0.001218      0.000966     -0.000790
      1.97664      5.31600      3.77629        -0.003209     -0.000360      0.003274
      0.66489      9.89090      3.77628         0.001916     -0.002599      0.003274
     -2.64127      6.46748      3.77628         0.001293      0.002958      0.003274
      4.28037      5.52107      8.02737         0.003209      0.000360      0.003274
      5.59214      0.94620      8.02735        -0.001916      0.002599      0.003274
      8.89824      4.36965      8.02737        -0.001293     -0.002958      0.003274
      2.43986      6.55793      1.96248        -0.001627      0.003257     -0.000083
     -0.64236      9.67115      1.96249        -0.002008     -0.003037     -0.000083
     -1.79733      5.44531      1.96250         0.003634     -0.000220     -0.000083
      3.81707      4.27916      6.21358         0.001627     -0.003257     -0.000083
      6.89936      1.16597      6.21359         0.002008      0.003037     -0.000083
      8.05433      5.39184      6.21358        -0.003634      0.000220     -0.000083
      0.65696      2.49873      3.83617        -0.001473      0.000804     -0.002106
      3.76454     10.15671      3.83614         0.000040     -0.001678     -0.002106
     -4.42129      9.01899      3.83615         0.001433      0.000874     -0.002106
      5.60007      8.33843      8.08727         0.001473     -0.000804     -0.002106
      2.49241      0.68040      8.08723        -0.000040      0.001678     -0.002106
     10.67829      1.81812      8.08728        -0.001433     -0.000874     -0.002106
     -0.63187      2.64706      2.00612         0.002046     -0.000961      0.001944
      4.28051      8.96640      2.00613        -0.000191      0.002252      0.001944
     -3.64841     10.06098      2.00612        -0.001855     -0.001292      0.001944
      6.88890      8.19004      6.25723        -0.002046      0.000961      0.001944
      1.97648      1.87076      6.25724         0.000191     -0.002252      0.001944
      9.90540      0.77617      6.25724         0.001855      0.001292      0.001944
      3.48645      1.99496      2.81453         0.000799     -0.000349     -0.001959
      9.04284      2.02171      2.81452        -0.000098      0.000866     -0.001959
      6.24146      6.82027      2.81452        -0.000701     -0.000518     -0.001959
      2.77050      8.84217      7.06561        -0.000799      0.000349     -0.001959
     -2.78584      8.81540      7.06564         0.000098     -0.000866     -0.001959
      0.01554      4.01684      7.06565         0.000701      0.000518     -0.001959
      2.64152      5.55693      2.71093        -0.000507     -0.002819      0.000629
      0.12373     10.34626      2.71091         0.002695      0.000970      0.000629
     -2.76504      5.77117      2.71094        -0.002188      0.001848      0.000629
      3.61547      5.28014      6.96202         0.000507      0.002819      0.000629
      6.13327      0.49089      6.96206        -0.002695     -0.000970      0.000629
      9.02201      5.06594      6.96205         0.002188     -0.001848      0.000629
     -0.09200      3.14825      3.05346        -0.001147      0.001434      0.000617
      3.57651      9.18333      3.05344        -0.000669     -0.001710      0.000617
     -3.48430      9.34282      3.05346         0.001816      0.000276      0.000617
      6.34902      7.68889      7.30455         0.001147     -0.001434      0.000617
      2.68047      1.65380      7.30457         0.000669      0.001710      0.000617
      9.74130      1.49428      7.30454        -0.001816     -0.000276      0.000617
      2.48437      1.53681      2.76216        -0.001911     -0.001339     -0.001852
      9.94066      1.38296      2.76216         0.002115     -0.000985     -0.001852
      6.34575      7.91719      2.76216        -0.000204      0.002324     -0.001852
      3.77262      9.30031      7.01326         0.001911      0.001339     -0.001852
     -3.68366      9.45416      7.01328        -0.002115      0.000985     -0.001852
     -0.08874      2.91991      7.01330         0.000204     -0.002324     -0.001852
      3.44590      4.84923      2.44508        -0.000560     -0.002837     -0.002156
      6.59123      0.55946      2.44510         0.002737      0.000933     -0.002156
      8.73363      5.42826      2.44510        -0.002176      0.001904     -0.002156
      2.81111      5.98790      6.69620         0.000560      0.002837     -0.002156
     -0.33424     10.27764      6.69621        -0.002737     -0.000933     -0.002156
     -2.47664      5.40885      6.69622         0.002176     -0.001904     -0.002156
     -0.29794      4.21374      3.25930        -0.001703     -0.002273      0.001432
      2.75674      8.47224      3.25929         0.002820     -0.000338      0.001432
     -2.45861      8.98840      3.25931        -0.001117      0.002612      0.001432
      6.55491      6.62339      7.51044         0.001703      0.002273      0.001432
      3.50026      2.36487      7.51043        -0.002820      0.000338      0.001432
      8.71559      1.84872      7.51041         0.001117     -0.002612      0.001432
      5.30475      3.32766      4.20589         0.002744      0.001926      0.001943
      6.97951      2.93006      4.20590        -0.003040      0.001413      0.001943
      6.48655      4.57924      4.20589         0.000296     -0.003340      0.001943
      0.95225      7.50947      8.45700        -0.002744     -0.001926      0.001943
     -0.72251      7.90707      8.45701         0.003040     -0.001413      0.001943
     -0.22955      6.25788      8.45701        -0.000296      0.003340      0.001943
      6.25691      3.61234      5.56012        -0.000000     -0.000000     -0.000312
      0.00010      7.22479      1.30901        -0.000000     -0.000000     -0.000312
      0.72472      6.53951      4.23467         0.000253     -0.000614      0.000367
      0.23118      8.19494      4.23464         0.000405      0.000526      0.000367
     -0.95565      6.93994      4.23465        -0.000659      0.000088      0.000367
      5.53229      4.29762      8.48577        -0.000253      0.000614      0.000367
      6.02582      2.64218      8.48576        -0.000405     -0.000526      0.000367
      7.21265      3.89717      8.48575         0.000659     -0.000088      0.000367
      0.00009      7.22479      5.58714         0.000000      0.000000      0.001694
      6.25692      3.61233      1.33602         0.000000      0.000000      0.001694
     -0.20953      0.97386      1.54316        -0.001723      0.001042     -0.000830
      5.51834     10.16873      1.54317        -0.000041     -0.002013     -0.000830
     -5.30866     10.53180      1.54319         0.001763      0.000971     -0.000830
      6.46652      9.86324      5.79427         0.001723     -0.001042     -0.000830
      0.73866      0.66836      5.79428         0.000041      0.002013     -0.000830
     11.56566      0.30532      5.79429        -0.001763     -0.000971     -0.000830
     -6.25677     10.83727      0.19269        -0.000000     -0.000000     -0.001390
      6.25699     10.83712      4.44379        -0.000000     -0.000000     -0.001390
      6.25693      3.61233      4.53773        -0.000000     -0.000000     -0.002369
      0.00006      7.22480      0.28662        -0.000000     -0.000000     -0.002369
      0.00007      7.22483      4.56429        -0.000000     -0.000000     -0.001289
      6.25693      3.61230      0.31317        -0.000000     -0.000000     -0.001289
      0.00003      0.00000      1.21516        -0.000000     -0.000000     -0.000989
      6.25697     10.83711      5.46625        -0.000000     -0.000000     -0.000989
 -----------------------------------------------------------------------------------
    total drift:                                0.216138      0.041561     -0.000429


--------------------------------------------------------------------------------------------------------



  FREE ENERGIE OF THE ION-ELECTRON SYSTEM (eV)
  ---------------------------------------------------
  free  energy   TOTEN  =      -680.52478131 eV

  energy  without entropy=     -680.52478131  energy(sigma->0) =     -680.52478131
 


--------------------------------------------------------------------------------------------------------


    POTLOK:  cpu time      1.8624: real time      1.8615


--------------------------------------------------------------------------------------------------------


     LOOP+:  cpu time    791.7519: real time    790.5610
    4ORBIT:  cpu time      0.0000: real time      0.0000



 total charge

# of ion       s       p       d       tot
------------------------------------------
    1        0.203   6.208   5.931  12.342
    2        0.203   6.208   5.931  12.342
    3        0.203   6.208   5.931  12.342
    4        0.203   6.208   5.931  12.342
    5        0.203   6.208   5.931  12.342
    6        0.203   6.208   5.931  12.342
    7        1.567   3.577   0.000   5.143
    8        1.567   3.577   0.000   5.143
    9        1.567   3.577   0.000   5.143
   10        1.567   3.577   0.000   5.143
   11        1.567   3.577   0.000   5.143
   12        1.567   3.577   0.000   5.143
   13        1.570   3.567   0.000   5.138
   14        1.570   3.567   0.000   5.138
   15        1.570   3.567   0.000   5.138
   16        1.570   3.567   0.000   5.138
   17        1.570   3.567   0.000   5.138
   18        1.570   3.567   0.000   5.138
   19        1.567   3.569   0.000   5.136
   20        1.567   3.569   0.000   5.136
   21        1.567   3.569   0.000   5.136
   22        1.567   3.569   0.000   5.136
   23        1.567   3.569   0.000   5.136
   24        1.567   3.569   0.000   5.136
   25        1.571   3.562   0.000   5.133
   26        1.571   3.562   0.000   5.133
   27        1.571   3.562   0.000   5.133
   28        1.571   3.562   0.000   5.133
   29        1.571   3.562   0.000   5.133
   30        1.571   3.562   0.000   5.133
   31        1.571   3.563   0.000   5.134
   32        1.571   3.563   0.000   5.134
   33        1.571   3.563   0.000   5.134
   34        1.571   3.563   0.000   5.134
   35        1.571   3.563   0.000   5.134
   36        1.571   3.563   0.000   5.134
   37        1.567   3.572   0.000   5.140
   38        1.567   3.572   0.000   5.140
   39        1.567   3.572   0.000   5.140
   40        1.567   3.572   0.000   5.140
   41        1.567   3.572   0.000   5.140
   42        1.567   3.572   0.000   5.140
   43        0.875   1.708   0.000   2.583
   44        0.875   1.708   0.000   2.583
   45        0.875   1.708   0.000   2.583
   46        0.875   1.708   0.000   2.583
   47        0.875   1.708   0.000   2.583
   48        0.875   1.708   0.000   2.583
   49        0.874   1.706   0.000   2.580
   50        0.874   1.706   0.000   2.580
   51        0.874   1.706   0.000   2.580
   52        0.874   1.706   0.000   2.580
   53        0.874   1.706   0.000   2.580
   54        0.874   1.706   0.000   2.580
   55        0.875   1.705   0.000   2.580
   56        0.875   1.705   0.000   2.580
   57        0.875   1.705   0.000   2.580
   58        0.875   1.705   0.000   2.580
   59        0.875   1.705   0.000   2.580
   60        0.875   1.705   0.000   2.580
   61        0.640   0.048   0.000   0.688
   62        0.640   0.048   0.000   0.688
   63        0.640   0.048   0.000   0.688
   64        0.640   0.048   0.000   0.688
   65        0.640   0.048   0.000   0.688
   66        0.640   0.048   0.000   0.688
   67        0.641   0.047   0.000   0.688
   68        0.641   0.047   0.000   0.688
   69        0.641   0.047   0.000   0.688
   70        0.641   0.047   0.000   0.688
   71        0.641   0.047   0.000   0.688
   72        0.641   0.047   0.000   0.688
   73        0.640   0.047   0.000   0.687
   74        0.640   0.047   0.000   0.687
   75        0.640   0.047   0.000   0.687
   76        0.640   0.047   0.000   0.687
   77        0.640   0.047   0.000   0.687
   78        0.640   0.047   0.000   0.687
   79        0.584   0.089   0.000   0.673
   80        0.584   0.089   0.000   0.673
   81        0.584   0.089   0.000   0.673
   82        0.584   0.089   0.000   0.673
   83        0.584   0.089   0.000   0.673
   84        0.584   0.089   0.000   0.673
   85        0.623   0.085   0.000   0.707
   86        0.623   0.085   0.000   0.707
   87        0.579   0.087   0.000   0.666
   88        0.579   0.087   0.000   0.666
   89        0.579   0.087   0.000   0.666
   90        0.579   0.087   0.000   0.666
   91        0.579   0.087   0.000   0.666
   92        0.579   0.087   0.000   0.666
   93        0.624   0.084   0.000   0.708
   94        0.624   0.084   0.000   0.708
   95        0.582   0.088   0.000   0.670
   96        0.582   0.088   0.000   0.670
   97        0.582   0.088   0.000   0.670
   98        0.582   0.088   0.000   0.670
   99        0.582   0.088   0.000   0.670
  100        0.582   0.088   0.000   0.670
  101        0.624   0.084   0.000   0.708
  102        0.624   0.084   0.000   0.708
  103        1.224   2.811   0.000   4.035
  104        1.224   2.811   0.000   4.035
  105        1.223   2.802   0.000   4.025
  106        1.223   2.802   0.000   4.025
  107        1.224   2.807   0.000   4.031
  108        1.224   2.807   0.000   4.031
--------------------------------------------------
tot        106.529 216.199  35.589 358.316



 magnetization (x)

# of ion       s       p       d       tot
------------------------------------------
    1        0.017   0.016   3.565   3.598
    2        0.017   0.016   3.565   3.598
    3        0.017   0.016   3.565   3.598
    4       -0.017  -0.016  -3.565  -3.598
    5       -0.017  -0.016  -3.565  -3.598
    6       -0.017  -0.016  -3.565  -3.598
    7        0.004   0.031   0.000   0.036
    8        0.004   0.031   0.000   0.036
    9        0.004   0.031   0.000   0.036
   10       -0.004  -0.031   0.000  -0.036
   11       -0.004  -0.031   0.000  -0.036
   12       -0.004  -0.031   0.000  -0.036
   13       -0.004  -0.027   0.000  -0.031
   14       -0.004  -0.027   0.000  -0.031
   15       -0.004  -0.027   0.000  -0.031
   16        0.004   0.027   0.000   0.031
   17        0.004   0.027   0.000   0.031
   18        0.004   0.027   0.000   0.031
   19        0.005   0.028   0.000   0.033
   20        0.005   0.028   0.000   0.033
   21        0.005   0.028   0.000   0.033
   22       -0.005  -0.028   0.000  -0.033
   23       -0.005  -0.028   0.000  -0.033
   24       -0.005  -0.028   0.000  -0.033
   25       -0.004  -0.028   0.000  -0.032
   26       -0.004  -0.028   0.000  -0.032
   27       -0.004  -0.028   0.000  -0.032
   28        0.004   0.028   0.000   0.032
   29        0.004   0.028   0.000   0.032
   30        0.004   0.028   0.000   0.032
   31        0.004   0.021   0.000   0.025
   32        0.004   0.021   0.000   0.025
   33        0.004   0.021   0.000   0.025
   34       -0.004  -0.021   0.000  -0.025
   35       -0.004  -0.021   0.000  -0.025
   36       -0.004  -0.021   0.000  -0.025
   37       -0.004  -0.028   0.000  -0.032
   38       -0.004  -0.028   0.000  -0.032
   39       -0.004  -0.028   0.000  -0.032
   40        0.004   0.028   0.000   0.032
   41        0.004   0.028   0.000   0.032
   42        0.004   0.028   0.000   0.032
   43        0.000   0.005   0.000   0.006
   44        0.000   0.005   0.000   0.006
   45        0.000   0.005   0.000   0.006
   46       -0.000  -0.005   0.000  -0.006
   47       -0.000  -0.005   0.000  -0.006
   48       -0.000  -0.005   0.000  -0.006
   49        0.000  -0.005   0.000  -0.004
   50        0.000  -0.005   0.000  -0.004
   51        0.000  -0.005   0.000  -0.004
   52       -0.000   0.005   0.000   0.004
   53       -0.000   0.005   0.000   0.004
   54       -0.000   0.005   0.000   0.004
   55       -0.001  -0.001   0.000  -0.001
   56       -0.001  -0.001   0.000  -0.001
   57       -0.001  -0.001   0.000  -0.001
   58        0.001   0.001   0.000   0.001
   59        0.001   0.001   0.000   0.001
   60        0.001   0.001   0.000   0.001
   61       -0.000   0.000   0.000  -0.000
   62       -0.000   0.000   0.000  -0.000
   63       -0.000   0.000   0.000  -0.000
   64        0.000  -0.000   0.000   0.000
   65        0.000  -0.000   0.000   0.000
   66        0.000  -0.000   0.000   0.000
   67        0.000  -0.000   0.000   0.000
   68        0.000  -0.000   0.000   0.000
   69        0.000  -0.000   0.000   0.000
   70       -0.000   0.000   0.000  -0.000
   71       -0.000   0.000   0.000  -0.000
   72       -0.000   0.000   0.000  -0.000
   73       -0.000  -0.000   0.000  -0.000
   74       -0.000  -0.000   0.000  -0.000
   75       -0.000  -0.000   0.000  -0.000
   76        0.000   0.000   0.000   0.000
   77        0.000   0.000   0.000   0.000
   78        0.000   0.000   0.000   0.000
   79       -0.000   0.000   0.000   0.000
   80       -0.000   0.000   0.000   0.000
   81       -0.000   0.000   0.000   0.000
   82        0.000  -0.000   0.000  -0.000
   83        0.000  -0.000   0.000  -0.000
   84        0.000  -0.000   0.000  -0.000
   85       -0.000   0.000   0.000   0.000
   86        0.000  -0.000   0.000  -0.000
   87        0.000   0.000   0.000   0.000
   88        0.000   0.000   0.000   0.000
   89        0.000   0.000   0.000   0.000
   90       -0.000  -0.000   0.000  -0.000
   91       -0.000  -0.000   0.000  -0.000
   92       -0.000  -0.000   0.000  -0.000
   93       -0.000   0.000   0.000   0.000
   94        0.000  -0.000   0.000  -0.000
   95        0.000  -0.000   0.000  -0.000
   96        0.000  -0.000   0.000  -0.000
   97        0.000  -0.000   0.000  -0.000
   98       -0.000   0.000   0.000   0.000
   99       -0.000   0.000   0.000   0.000
  100       -0.000   0.000   0.000   0.000
  101        0.000  -0.000   0.000  -0.000
  102       -0.000   0.000   0.000   0.000
  103        0.000   0.001   0.000   0.001
  104       -0.000  -0.001   0.000  -0.001
  105        0.000   0.001   0.000   0.002
  106       -0.000  -0.001   0.000  -0.002
  107       -0.000  -0.001   0.000  -0.001
  108        0.000   0.001   0.000   0.001
--------------------------------------------------
tot         -0.000   0.000   0.000  -0.000
 

 total amount of memory used by VASP MPI-rank0   775699. kBytes
=======================================================================

   base      :      30000. kBytes
   nonl-proj :     533848. kBytes
   fftplans  :      22710. kBytes
   grid      :     109935. kBytes
   one-center:       3359. kBytes
   wavefun   :      75847. kBytes
 
  
  
 General timing and accounting informations for this job:
 ========================================================
  
                  Total CPU time used (sec):      963.284
                            User time (sec):      939.736
                          System time (sec):       23.547
                         Elapsed time (sec):      962.661
  
                   Maximum memory used (kb):     1090176.
                   Average memory used (kb):          N/A
  
                          Minor page faults:       352994
                          Major page faults:            4
                 Voluntary context switches:        39058
